 Entering Gaussian System, Link 0=/usr/local/g16/g16
 Initial command:
 /usr/local/g16/l1.exe "/scratch/webmo-2372/3106/Gau-10432.inp" -scrdir="/scratch/webmo-2372/3106/"
 Entering Link 1 = /usr/local/g16/l1.exe PID=     10433.
  
 Copyright (c) 1988,1990,1992,1993,1995,1998,2003,2009,2016,
            Gaussian, Inc.  All Rights Reserved.
  
 This is part of the Gaussian(R) 16 program.  It is based on
 the Gaussian(R) 09 system (copyright 2009, Gaussian, Inc.),
 the Gaussian(R) 03 system (copyright 2003, Gaussian, Inc.),
 the Gaussian(R) 98 system (copyright 1998, Gaussian, Inc.),
 the Gaussian(R) 94 system (copyright 1995, Gaussian, Inc.),
 the Gaussian 92(TM) system (copyright 1992, Gaussian, Inc.),
 the Gaussian 90(TM) system (copyright 1990, Gaussian, Inc.),
 the Gaussian 88(TM) system (copyright 1988, Gaussian, Inc.),
 the Gaussian 86(TM) system (copyright 1986, Carnegie Mellon
 University), and the Gaussian 82(TM) system (copyright 1983,
 Carnegie Mellon University). Gaussian is a federally registered
 trademark of Gaussian, Inc.
  
 This software contains proprietary and confidential information,
 including trade secrets, belonging to Gaussian, Inc.
  
 This software is provided under written license and may be
 used, copied, transmitted, or stored only in accord with that
 written license.
  
 The following legend is applicable only to US Government
 contracts under FAR:
  
                    RESTRICTED RIGHTS LEGEND
  
 Use, reproduction and disclosure by the US Government is
 subject to restrictions as set forth in subparagraphs (a)
 and (c) of the Commercial Computer Software - Restricted
 Rights clause in FAR 52.227-19.
  
 Gaussian, Inc.
 340 Quinnipiac St., Bldg. 40, Wallingford CT 06492
  
  
 ---------------------------------------------------------------
 Warning -- This program may not be used in any manner that
 competes with the business of Gaussian, Inc. or will provide
 assistance to any competitor of Gaussian, Inc.  The licensee
 of this program is prohibited from giving any competitor of
 Gaussian, Inc. access to this program.  By using this program,
 the user acknowledges that Gaussian, Inc. is engaged in the
 business of creating and licensing software in the field of
 computational chemistry and represents and warrants to the
 licensee that it is not a competitor of Gaussian, Inc. and that
 it will not use this program in any manner prohibited above.
 ---------------------------------------------------------------
  

 Cite this work as:
 Gaussian 16, Revision A.03,
 M. J. Frisch, G. W. Trucks, H. B. Schlegel, G. E. Scuseria, 
 M. A. Robb, J. R. Cheeseman, G. Scalmani, V. Barone, 
 G. A. Petersson, H. Nakatsuji, X. Li, M. Caricato, A. V. Marenich, 
 J. Bloino, B. G. Janesko, R. Gomperts, B. Mennucci, H. P. Hratchian, 
 J. V. Ortiz, A. F. Izmaylov, J. L. Sonnenberg, D. Williams-Young, 
 F. Ding, F. Lipparini, F. Egidi, J. Goings, B. Peng, A. Petrone, 
 T. Henderson, D. Ranasinghe, V. G. Zakrzewski, J. Gao, N. Rega, 
 G. Zheng, W. Liang, M. Hada, M. Ehara, K. Toyota, R. Fukuda, 
 J. Hasegawa, M. Ishida, T. Nakajima, Y. Honda, O. Kitao, H. Nakai, 
 T. Vreven, K. Throssell, J. A. Montgomery, Jr., J. E. Peralta, 
 F. Ogliaro, M. J. Bearpark, J. J. Heyd, E. N. Brothers, K. N. Kudin, 
 V. N. Staroverov, T. A. Keith, R. Kobayashi, J. Normand, 
 K. Raghavachari, A. P. Rendell, J. C. Burant, S. S. Iyengar, 
 J. Tomasi, M. Cossi, J. M. Millam, M. Klene, C. Adamo, R. Cammi, 
 J. W. Ochterski, R. L. Martin, K. Morokuma, O. Farkas, 
 J. B. Foresman, and D. J. Fox, Gaussian, Inc., Wallingford CT, 2016.
 
 ******************************************
 Gaussian 16:  EM64L-G16RevA.03 25-Dec-2016
                16-Jun-2021 
 ******************************************
 -------------------------------------------------
 #N B3LYP/6-311+G(2d,p) OPT FREQ Geom=Connectivity
 -------------------------------------------------
 1/18=20,19=15,26=3,38=1,57=2/1,3;
 2/9=110,12=2,17=6,18=5,40=1/2;
 3/5=4,6=6,7=112,11=2,25=1,30=1,71=1,74=-5/1,2,3;
 4//1;
 5/5=2,38=5/2;
 6/7=2,8=2,9=2,10=2,28=1/1;
 7//1,2,3,16;
 1/18=20,19=15,26=3/3(2);
 2/9=110/2;
 99//99;
 2/9=110/2;
 3/5=4,6=6,7=112,11=2,25=1,30=1,71=1,74=-5/1,2,3;
 4/5=5,16=3,69=1/1;
 5/5=2,38=5/2;
 7//1,2,3,16;
 1/18=20,19=15,26=3/3(-5);
 2/9=110/2;
 6/7=2,8=2,9=2,10=2,19=2,28=1/1;
 99/9=1/99;
 -----
 C10H8
 -----
 Symbolic Z-matrix:
 Charge =  0 Multiplicity = 1
 C
 C                    1    B1
 C                    2    B2       1    A1
 C                    3    B3       2    A2       1    D1       0
 C                    4    B4       3    A3       2    D2       0
 C                    5    B5       4    A4       3    D3       0
 C                    6    B6       5    A5       4    D4       0
 C                    7    B7       6    A6       5    D5       0
 C                    8    B8       7    A7       6    D6       0
 C                    9    B9       8    A8       7    D7       0
 H                    9    B10      8    A9       7    D8       0
 H                    8    B11      7    A10      6    D9       0
 H                    7    B12      6    A11      5    D10      0
 H                    6    B13      5    A12      4    D11      0
 H                    5    B14      4    A13      3    D12      0
 H                    3    B15      2    A14      1    D13      0
 H                    2    B16      1    A15      10   D14      0
 H                    1    B17      2    A16      3    D15      0
       Variables:
  B1                    1.33894                  
  B2                    1.33894                  
  B3                    1.3452                   
  B4                    1.33916                  
  B5                    1.34048                  
  B6                    1.34091                  
  B7                    1.34091                  
  B8                    1.34048                  
  B9                    1.33916                  
  B10                   1.10485                  
  B11                   1.10557                  
  B12                   1.10563                  
  B13                   1.10557                  
  B14                   1.10485                  
  B15                   1.1035                   
  B16                   1.10279                  
  B17                   1.1035                   
  A1                  107.25529                  
  A2                  108.79125                  
  A3                  123.16361                  
  A4                  127.44848                  
  A5                  128.73856                  
  A6                  129.11535                  
  A7                  128.73856                  
  A8                  127.44848                  
  A9                  115.89698                  
  A10                 115.68408                  
  A11                 115.44233                  
  A12                 115.57736                  
  A13                 116.65454                  
  A14                 124.6791                   
  A15                 126.37236                  
  A16                 124.6791                   
  D1                    0.                       
  D2                  180.                       
  D3                  180.                       
  D4                    0.                       
  D5                    0.                       
  D6                    0.                       
  D7                    0.                       
  D8                 -180.                       
  D9                  180.                       
  D10                 180.                       
  D11                 180.                       
  D12                  0.                        
  D13                 180.                       
  D14                -180.                       
  D15                 180.                       
 

 GradGradGradGradGradGradGradGradGradGradGradGradGradGradGradGradGradGrad
 Berny optimization.
 Initialization pass.
                           ----------------------------
                           !    Initial Parameters    !
                           ! (Angstroms and Degrees)  !
 --------------------------                            --------------------------
 ! Name  Definition              Value          Derivative Info.                !
 --------------------------------------------------------------------------------
 ! R1    R(1,2)                  1.3389         estimate D2E/DX2                !
 ! R2    R(1,10)                 1.3452         estimate D2E/DX2                !
 ! R3    R(1,18)                 1.1035         estimate D2E/DX2                !
 ! R4    R(2,3)                  1.3389         estimate D2E/DX2                !
 ! R5    R(2,17)                 1.1028         estimate D2E/DX2                !
 ! R6    R(3,4)                  1.3452         estimate D2E/DX2                !
 ! R7    R(3,16)                 1.1035         estimate D2E/DX2                !
 ! R8    R(4,5)                  1.3392         estimate D2E/DX2                !
 ! R9    R(4,10)                 1.3435         estimate D2E/DX2                !
 ! R10   R(5,6)                  1.3405         estimate D2E/DX2                !
 ! R11   R(5,15)                 1.1049         estimate D2E/DX2                !
 ! R12   R(6,7)                  1.3409         estimate D2E/DX2                !
 ! R13   R(6,14)                 1.1056         estimate D2E/DX2                !
 ! R14   R(7,8)                  1.3409         estimate D2E/DX2                !
 ! R15   R(7,13)                 1.1056         estimate D2E/DX2                !
 ! R16   R(8,9)                  1.3405         estimate D2E/DX2                !
 ! R17   R(8,12)                 1.1056         estimate D2E/DX2                !
 ! R18   R(9,10)                 1.3392         estimate D2E/DX2                !
 ! R19   R(9,11)                 1.1049         estimate D2E/DX2                !
 ! A1    A(2,1,10)             108.7913         estimate D2E/DX2                !
 ! A2    A(2,1,18)             124.6791         estimate D2E/DX2                !
 ! A3    A(10,1,18)            126.5296         estimate D2E/DX2                !
 ! A4    A(1,2,3)              107.2553         estimate D2E/DX2                !
 ! A5    A(1,2,17)             126.3724         estimate D2E/DX2                !
 ! A6    A(3,2,17)             126.3724         estimate D2E/DX2                !
 ! A7    A(2,3,4)              108.7913         estimate D2E/DX2                !
 ! A8    A(2,3,16)             124.6791         estimate D2E/DX2                !
 ! A9    A(4,3,16)             126.5296         estimate D2E/DX2                !
 ! A10   A(3,4,5)              123.1636         estimate D2E/DX2                !
 ! A11   A(3,4,10)             107.5811         estimate D2E/DX2                !
 ! A12   A(5,4,10)             129.2553         estimate D2E/DX2                !
 ! A13   A(4,5,6)              127.4485         estimate D2E/DX2                !
 ! A14   A(4,5,15)             116.6545         estimate D2E/DX2                !
 ! A15   A(6,5,15)             115.897          estimate D2E/DX2                !
 ! A16   A(5,6,7)              128.7386         estimate D2E/DX2                !
 ! A17   A(5,6,14)             115.5774         estimate D2E/DX2                !
 ! A18   A(7,6,14)             115.6841         estimate D2E/DX2                !
 ! A19   A(6,7,8)              129.1153         estimate D2E/DX2                !
 ! A20   A(6,7,13)             115.4423         estimate D2E/DX2                !
 ! A21   A(8,7,13)             115.4423         estimate D2E/DX2                !
 ! A22   A(7,8,9)              128.7386         estimate D2E/DX2                !
 ! A23   A(7,8,12)             115.6841         estimate D2E/DX2                !
 ! A24   A(9,8,12)             115.5774         estimate D2E/DX2                !
 ! A25   A(8,9,10)             127.4485         estimate D2E/DX2                !
 ! A26   A(8,9,11)             115.897          estimate D2E/DX2                !
 ! A27   A(10,9,11)            116.6545         estimate D2E/DX2                !
 ! A28   A(1,10,4)             107.5811         estimate D2E/DX2                !
 ! A29   A(1,10,9)             123.1636         estimate D2E/DX2                !
 ! A30   A(4,10,9)             129.2553         estimate D2E/DX2                !
 ! D1    D(10,1,2,3)             0.0            estimate D2E/DX2                !
 ! D2    D(10,1,2,17)          180.0            estimate D2E/DX2                !
 ! D3    D(18,1,2,3)           180.0            estimate D2E/DX2                !
 ! D4    D(18,1,2,17)            0.0            estimate D2E/DX2                !
 ! D5    D(2,1,10,4)             0.0            estimate D2E/DX2                !
 ! D6    D(2,1,10,9)           180.0            estimate D2E/DX2                !
 ! D7    D(18,1,10,4)         -180.0            estimate D2E/DX2                !
 ! D8    D(18,1,10,9)            0.0            estimate D2E/DX2                !
 ! D9    D(1,2,3,4)              0.0            estimate D2E/DX2                !
 ! D10   D(1,2,3,16)           180.0            estimate D2E/DX2                !
 ! D11   D(17,2,3,4)           180.0            estimate D2E/DX2                !
 ! D12   D(17,2,3,16)            0.0            estimate D2E/DX2                !
 ! D13   D(2,3,4,5)            180.0            estimate D2E/DX2                !
 ! D14   D(2,3,4,10)             0.0            estimate D2E/DX2                !
 ! D15   D(16,3,4,5)             0.0            estimate D2E/DX2                !
 ! D16   D(16,3,4,10)         -180.0            estimate D2E/DX2                !
 ! D17   D(3,4,5,6)            180.0            estimate D2E/DX2                !
 ! D18   D(3,4,5,15)             0.0            estimate D2E/DX2                !
 ! D19   D(10,4,5,6)             0.0            estimate D2E/DX2                !
 ! D20   D(10,4,5,15)          180.0            estimate D2E/DX2                !
 ! D21   D(3,4,10,1)             0.0            estimate D2E/DX2                !
 ! D22   D(3,4,10,9)          -180.0            estimate D2E/DX2                !
 ! D23   D(5,4,10,1)           180.0            estimate D2E/DX2                !
 ! D24   D(5,4,10,9)             0.0            estimate D2E/DX2                !
 ! D25   D(4,5,6,7)              0.0            estimate D2E/DX2                !
 ! D26   D(4,5,6,14)           180.0            estimate D2E/DX2                !
 ! D27   D(15,5,6,7)          -180.0            estimate D2E/DX2                !
 ! D28   D(15,5,6,14)            0.0            estimate D2E/DX2                !
 ! D29   D(5,6,7,8)              0.0            estimate D2E/DX2                !
 ! D30   D(5,6,7,13)           180.0            estimate D2E/DX2                !
 ! D31   D(14,6,7,8)           180.0            estimate D2E/DX2                !
 ! D32   D(14,6,7,13)            0.0            estimate D2E/DX2                !
 ! D33   D(6,7,8,9)              0.0            estimate D2E/DX2                !
 ! D34   D(6,7,8,12)           180.0            estimate D2E/DX2                !
 ! D35   D(13,7,8,9)          -180.0            estimate D2E/DX2                !
 ! D36   D(13,7,8,12)            0.0            estimate D2E/DX2                !
 ! D37   D(7,8,9,10)             0.0            estimate D2E/DX2                !
 ! D38   D(7,8,9,11)           180.0            estimate D2E/DX2                !
 ! D39   D(12,8,9,10)         -180.0            estimate D2E/DX2                !
 ! D40   D(12,8,9,11)            0.0            estimate D2E/DX2                !
 ! D41   D(8,9,10,1)          -180.0            estimate D2E/DX2                !
 ! D42   D(8,9,10,4)             0.0            estimate D2E/DX2                !
 ! D43   D(11,9,10,1)            0.0            estimate D2E/DX2                !
 ! D44   D(11,9,10,4)          180.0            estimate D2E/DX2                !
 --------------------------------------------------------------------------------
 Trust Radius=3.00D-01 FncErr=1.00D-07 GrdErr=1.00D-06 EigMax=2.50D+02 EigMin=1.00D-04
 Number of steps in this run=    103 maximum allowed number of steps=    108.
 GradGradGradGradGradGradGradGradGradGradGradGradGradGradGradGradGradGrad

                          Input orientation:                          
 ---------------------------------------------------------------------
 Center     Atomic      Atomic             Coordinates (Angstroms)
 Number     Number       Type             X           Y           Z
 ---------------------------------------------------------------------
      1          6           0        0.000000    0.000000    0.000000
      2          6           0        0.000000    0.000000    1.338942
      3          6           0        1.278679    0.000000    1.736111
      4          6           0        2.070253    0.000000    0.648462
      5          6           0        3.407723    0.000000    0.715816
      6          6           0        4.275293    0.000000   -0.306051
      7          6           0        4.021043    0.000000   -1.622634
      8          6           0        2.839134    0.000000   -2.255978
      9          6           0        1.605912    0.000000   -1.730571
     10          6           0        1.273502    0.000000   -0.433318
     11          1           0        0.772412    0.000000   -2.455810
     12          1           0        2.887382    0.000000   -3.360492
     13          1           0        4.911272    0.000000   -2.278304
     14          1           0        5.344407    0.000000   -0.024496
     15          1           0        3.853079    0.000000    1.726930
     16          1           0        1.609108    0.000000    2.788978
     17          1           0       -0.887947   -0.000000    1.992931
     18          1           0       -0.907465    0.000000   -0.627869
 ---------------------------------------------------------------------
                    Distance matrix (angstroms):
                    1          2          3          4          5
     1  C    0.000000
     2  C    1.338942   0.000000
     3  C    2.156178   1.338942   0.000000
     4  C    2.169436   2.182364   1.345203   0.000000
     5  C    3.482093   3.464226   2.360896   1.339165   0.000000
     6  C    4.286233   4.580844   3.626309   2.402768   1.340481
     7  C    4.336096   4.993968   4.336096   2.993903   2.417542
     8  C    3.626309   4.580844   4.286233   3.004488   3.025699
     9  C    2.360896   3.464226   3.482093   2.423925   3.038311
    10  C    1.345203   2.182364   2.169436   1.343526   2.423925
    11  H    2.574417   3.872565   4.222382   3.364654   4.123600
    12  H    4.430562   5.515583   5.344464   4.091382   4.109384
    13  H    5.413987   6.099595   5.413987   4.078890   3.350434
    14  H    5.344464   5.515583   4.430562   3.342597   2.073356
    15  H    4.222382   3.872565   2.574417   2.083642   1.104850
    16  H    3.219880   2.166064   1.103500   2.189626   2.744634
    17  H    2.181794   1.102793   2.181794   3.249392   4.481496
    18  H    1.103500   2.166064   3.219880   3.239726   4.519550
                    6          7          8          9         10
     6  C    0.000000
     7  C    1.340908   0.000000
     8  C    2.421728   1.340908   0.000000
     9  C    3.025699   2.417542   1.340481   0.000000
    10  C    3.004488   2.993903   2.402768   1.339165   0.000000
    11  H    4.109944   3.353773   2.076361   1.104850   2.083642
    12  H    3.354982   2.074931   1.105567   2.073356   3.342597
    13  H    2.072258   1.105626   2.072258   3.350434   4.078890
    14  H    1.105567   2.074931   3.354982   4.109384   4.091382
    15  H    2.076361   3.353773   4.109944   4.123600   3.364654
    16  H    4.085064   5.027897   5.192739   4.519550   3.239726
    17  H    5.651934   6.096761   5.651934   4.481496   3.249392
    18  H    5.192739   5.027897   4.085064   2.744634   2.189626
                   11         12         13         14         15
    11  H    0.000000
    12  H    2.300337   0.000000
    13  H    4.142665   2.295051   0.000000
    14  H    5.178266   4.143168   2.295051   0.000000
    15  H    5.194789   5.178266   4.142665   2.300337   0.000000
    16  H    5.311107   6.280921   6.048275   4.676333   2.482610
    17  H    4.748482   6.550744   7.202387   6.550744   4.748482
    18  H    2.482610   4.676333   6.048275   6.280921   5.311107
                   16         17         18
    16  H    0.000000
    17  H    2.620873   0.000000
    18  H    4.243581   2.620873   0.000000
 Stoichiometry    C10H8
 Framework group  C2V[C2(HCCH),SGV(C8H6)]
 Deg. of freedom    17
 Full point group                 C2V     NOp   4
 Largest Abelian subgroup         C2V     NOp   4
 Largest concise Abelian subgroup C2      NOp   2
                         Standard orientation:                         
 ---------------------------------------------------------------------
 Center     Atomic      Atomic             Coordinates (Angstroms)
 Number     Number       Type             X           Y           Z
 ---------------------------------------------------------------------
      1          6           0        0.000000   -1.078089    1.803331
      2          6           0        0.000000    0.000000    2.597364
      3          6           0        0.000000    1.078089    1.803331
      4          6           0        0.000000    0.671763    0.520962
      5          6           0       -0.000000    1.519155   -0.515999
      6          6           0       -0.000000    1.210864   -1.820547
      7          6           0       -0.000000   -0.000000   -2.396604
      8          6           0       -0.000000   -1.210864   -1.820547
      9          6           0       -0.000000   -1.519155   -0.515999
     10          6           0       -0.000000   -0.671763    0.520962
     11          1           0        0.000000   -2.597394   -0.274970
     12          1           0       -0.000000   -2.071584   -2.514406
     13          1           0       -0.000000   -0.000000   -3.502231
     14          1           0        0.000000    2.071584   -2.514406
     15          1           0        0.000000    2.597394   -0.274970
     16          1           0        0.000000    2.121790    2.161658
     17          1           0        0.000000    0.000000    3.700157
     18          1           0       -0.000000   -2.121790    2.161658
 ---------------------------------------------------------------------
 Rotational constants (GHZ):           3.1463358           1.3701734           0.9545039
 Standard basis: 6-311+G(2d,p) (5D, 7F)
 There are   137 symmetry adapted cartesian basis functions of A1  symmetry.
 There are    39 symmetry adapted cartesian basis functions of A2  symmetry.
 There are    49 symmetry adapted cartesian basis functions of B1  symmetry.
 There are   113 symmetry adapted cartesian basis functions of B2  symmetry.
 There are   125 symmetry adapted basis functions of A1  symmetry.
 There are    39 symmetry adapted basis functions of A2  symmetry.
 There are    49 symmetry adapted basis functions of B1  symmetry.
 There are   105 symmetry adapted basis functions of B2  symmetry.
   318 basis functions,   484 primitive gaussians,   338 cartesian basis functions
    34 alpha electrons       34 beta electrons
       nuclear repulsion energy       473.7846711195 Hartrees.
 NAtoms=   18 NActive=   18 NUniq=   11 SFac= 2.68D+00 NAtFMM=   60 NAOKFM=F Big=F
 Integral buffers will be    131072 words long.
 Raffenetti 2 integral format.
 Two-electron integral symmetry is turned on.
 One-electron integrals computed using PRISM.
 NBasis=   318 RedAO= T EigKep=  1.12D-06  NBF=   125    39    49   105
 NBsUse=   316 1.00D-06 EigRej=  6.13D-07 NBFU=   124    39    49   104
 ExpMin= 4.38D-02 ExpMax= 4.56D+03 ExpMxC= 6.82D+02 IAcc=3 IRadAn=         5 AccDes= 0.00D+00
 Harris functional with IExCor=  402 and IRadAn=       5 diagonalized for initial guess.
 HarFok:  IExCor=  402 AccDes= 0.00D+00 IRadAn=         5 IDoV= 1 UseB2=F ITyADJ=14
 ICtDFT=  3500011 ScaDFX=  1.000000  1.000000  1.000000  1.000000
 FoFCou: FMM=F IPFlag=           0 FMFlag=      100000 FMFlg1=           0
         NFxFlg=           0 DoJE=T BraDBF=F KetDBF=T FulRan=T
         wScrn=  0.000000 ICntrl=       500 IOpCl=  0 I1Cent=   200000004 NGrid=           0
         NMat0=    1 NMatS0=      1 NMatT0=    0 NMatD0=    1 NMtDS0=    0 NMtDT0=    0
 Petite list used in FoFCou.
 Initial guess orbital symmetries:
       Occupied  (A1) (B2) (A1) (B2) (A1) (B2) (A1) (A1) (B2) (A1)
                 (A1) (A1) (B2) (A1) (B2) (A1) (B2) (A1) (A1) (B2)
                 (A1) (B2) (A1) (B2) (B1) (A1) (B2) (A1) (B2) (A1)
                 (B1) (A2) (B1) (A2)
       Virtual   (B1) (A2) (B1) (A1) (B2) (A1) (B1) (A2) (A1) (B2)
                 (A1) (B1) (A1) (B2) (A1) (B1) (A1) (A2) (B2) (B2)
                 (A1) (B1) (A2) (B2) (A1) (B2) (B1) (A1) (B2) (A1)
                 (B1) (A2) (A1) (B2) (A1) (B2) (A1) (B2) (A1) (B1)
                 (A1) (A2) (B2) (A1) (B2) (A1) (B2) (A1) (B2) (A1)
                 (A1) (B2) (B2) (A1) (B2) (A1) (A1) (B2) (A1) (B2)
                 (B1) (A1) (B2) (B1) (A1) (B2) (B1) (A2) (A1) (A1)
                 (B2) (B2) (A1) (B1) (B1) (A2) (B2) (B2) (A1) (B1)
                 (A2) (A1) (B2) (A1) (B1) (A2) (B1) (A1) (A2) (A1)
                 (B2) (B2) (B1) (A1) (A2) (A1) (A1) (B2) (B2) (A2)
                 (B2) (A1) (A1) (B2) (A1) (B1) (B2) (A1) (B2) (A2)
                 (A1) (B1) (B2) (A1) (B2) (A1) (A1) (A2) (B1) (B2)
                 (B1) (A1) (A2) (B2) (B2) (B2) (A1) (B1) (A1) (A1)
                 (A2) (A1) (B2) (B1) (A1) (B2) (B1) (A1) (B2) (B2)
                 (A1) (A2) (A1) (B2) (B2) (A2) (A1) (B2) (A1) (A1)
                 (B2) (B1) (A1) (A1) (B2) (B2) (B1) (A2) (A2) (B1)
                 (A1) (B2) (A1) (A2) (B2) (A2) (B1) (A1) (B2) (B1)
                 (B2) (B2) (A1) (A1) (A1) (A1) (B2) (B1) (A1) (B2)
                 (B1) (B2) (A1) (A1) (B1) (A2) (B2) (A1) (A1) (A2)
                 (B2) (B1) (B2) (A1) (A2) (A2) (B1) (B2) (B1) (B2)
                 (A1) (A1) (B1) (B2) (A1) (A2) (B1) (B2) (A1) (A2)
                 (B1) (A1) (A2) (B1) (A1) (B2) (B1) (A1) (B2) (A2)
                 (A1) (B2) (A1) (B2) (A2) (B1) (A1) (B2) (B1) (A1)
                 (A2) (A1) (B1) (A2) (A1) (B2) (B1) (B2) (B2) (A2)
                 (A1) (B1) (B2) (A1) (B2) (A1) (A2) (A1) (A1) (B2)
                 (A1) (B2) (A2) (A1) (B2) (A1) (A1) (B2) (A1) (B2)
                 (B2) (B2) (A1) (A1) (B2) (A1) (A1) (B2) (B2) (A1)
                 (B2) (B2) (A1) (A1) (B2) (A1) (B2) (A1) (B2) (A1)
                 (A1) (B2)
 The electronic state of the initial guess is 1-A1.
 Requested convergence on RMS density matrix=1.00D-08 within 128 cycles.
 Requested convergence on MAX density matrix=1.00D-06.
 Requested convergence on             energy=1.00D-06.
 No special actions if energy rises.
 SCF Done:  E(RB3LYP) =  -385.894815355     A.U. after   13 cycles
            NFock= 13  Conv=0.33D-08     -V/T= 2.0000

 **********************************************************************

            Population analysis using the SCF density.

 **********************************************************************

 Orbital symmetries:
       Occupied  (B2) (A1) (A1) (B2) (A1) (A1) (B2) (A1) (B2) (A1)
                 (A1) (A1) (B2) (A1) (B2) (A1) (B2) (A1) (A1) (B2)
                 (A1) (B2) (A1) (B1) (B2) (A1) (A1) (B2) (B2) (B1)
                 (A1) (A2) (B1) (A2)
       Virtual   (B1) (A2) (A1) (B2) (A1) (A1) (B2) (B1) (A1) (A1)
                 (B2) (A2) (B1) (B1) (A1) (A1) (B2) (A2) (B2) (B1)
                 (B1) (A1) (B1) (A1) (B2) (A2) (B2) (A1) (B2) (B1)
                 (A1) (A2) (B2) (A1) (B1) (B2) (A2) (A1) (A1) (A1)
                 (B2) (A1) (A1) (B2) (B2) (A1) (B2) (B2) (A1) (B2)
                 (A1) (A1) (B2) (A1) (B2) (A1) (A1) (A1) (B2) (B2)
                 (B1) (A1) (B2) (B1) (B2) (A1) (B1) (A2) (A1) (A1)
                 (B2) (B2) (B1) (A2) (A1) (B1) (B2) (B2) (B1) (A2)
                 (A1) (A1) (B2) (B1) (B1) (A2) (A1) (A1) (A2) (A1)
                 (B2) (B1) (A1) (B2) (A2) (A1) (A1) (B2) (A1) (B2)
                 (A1) (A2) (B2) (A1) (B2) (B2) (B1) (A1) (A1) (B2)
                 (A2) (B1) (B2) (A1) (B2) (A1) (A2) (A1) (B2) (B1)
                 (B1) (B2) (A1) (A2) (A1) (B2) (B2) (B1) (A1) (A2)
                 (A1) (B1) (A1) (B2) (B2) (A1) (B1) (A1) (B2) (B2)
                 (A1) (A2) (B2) (A1) (B2) (A2) (A1) (B2) (A1) (B2)
                 (A1) (B1) (A1) (B2) (B2) (B1) (A1) (A2) (A2) (B1)
                 (A1) (A1) (B2) (A2) (A2) (B2) (B1) (B2) (B1) (A1)
                 (B2) (B2) (A1) (A1) (A1) (B2) (A1) (A1) (B2) (B1)
                 (B1) (A1) (B2) (A1) (B2) (A1) (B2) (A1) (B2) (A1)
                 (B1) (A2) (B1) (A2) (A2) (A2) (B2) (B1) (B1) (B2)
                 (A1) (A1) (B1) (B2) (A1) (A2) (A1) (B1) (B2) (A1)
                 (B1) (A2) (A2) (B1) (A1) (B2) (B1) (B2) (A1) (A2)
                 (A1) (B2) (A1) (B2) (A2) (B1) (A1) (B2) (B1) (A2)
                 (A1) (B1) (A1) (A2) (B2) (A1) (B1) (B2) (B2) (A2)
                 (A1) (B1) (B2) (A1) (B2) (A1) (A2) (A1) (A1) (B2)
                 (B2) (A1) (A2) (A1) (B2) (A1) (A1) (B2) (A1) (B2)
                 (B2) (B2) (A1) (A1) (B2) (A1) (A1) (B2) (B2) (A1)
                 (B2) (B2) (A1) (A1) (B2) (A1) (B2) (A1) (B2) (A1)
                 (A1) (B2)
 The electronic state is 1-A1.
 Alpha  occ. eigenvalues --  -10.18686 -10.18683 -10.18595 -10.17158 -10.17155
 Alpha  occ. eigenvalues --  -10.15637 -10.15557 -10.15392 -10.14022 -10.14017
 Alpha  occ. eigenvalues --   -0.92401  -0.85612  -0.80924  -0.76063  -0.71720
 Alpha  occ. eigenvalues --   -0.66803  -0.62254  -0.57157  -0.56479  -0.53049
 Alpha  occ. eigenvalues --   -0.49906  -0.46392  -0.45715  -0.42392  -0.41128
 Alpha  occ. eigenvalues --   -0.39913  -0.38351  -0.37060  -0.35679  -0.35570
 Alpha  occ. eigenvalues --   -0.34592  -0.31815  -0.24999  -0.19954
 Alpha virt. eigenvalues --   -0.08166  -0.03602  -0.00495   0.01102   0.01687
 Alpha virt. eigenvalues --    0.03605   0.03773   0.04445   0.04932   0.06162
 Alpha virt. eigenvalues --    0.06428   0.06762   0.07348   0.07490   0.09264
 Alpha virt. eigenvalues --    0.09636   0.10447   0.10637   0.11242   0.11362
 Alpha virt. eigenvalues --    0.12537   0.13839   0.14515   0.15212   0.15347
 Alpha virt. eigenvalues --    0.15967   0.16292   0.17177   0.17328   0.18265
 Alpha virt. eigenvalues --    0.18292   0.19425   0.19884   0.20440   0.20655
 Alpha virt. eigenvalues --    0.20932   0.21213   0.21248   0.21585   0.22124
 Alpha virt. eigenvalues --    0.22518   0.23615   0.24591   0.25396   0.26561
 Alpha virt. eigenvalues --    0.27198   0.27385   0.27645   0.28035   0.29337
 Alpha virt. eigenvalues --    0.29749   0.31930   0.32480   0.33056   0.36218
 Alpha virt. eigenvalues --    0.39862   0.40054   0.41712   0.41964   0.43941
 Alpha virt. eigenvalues --    0.45985   0.48802   0.48844   0.49061   0.51261
 Alpha virt. eigenvalues --    0.51311   0.51637   0.51895   0.53089   0.54011
 Alpha virt. eigenvalues --    0.54065   0.55395   0.55402   0.57175   0.57361
 Alpha virt. eigenvalues --    0.59373   0.60617   0.61434   0.61489   0.61513
 Alpha virt. eigenvalues --    0.61819   0.64811   0.65424   0.66643   0.67016
 Alpha virt. eigenvalues --    0.67220   0.67406   0.68963   0.69839   0.70424
 Alpha virt. eigenvalues --    0.71232   0.72217   0.74839   0.75138   0.75292
 Alpha virt. eigenvalues --    0.77550   0.79348   0.79820   0.80019   0.80604
 Alpha virt. eigenvalues --    0.80918   0.81459   0.81818   0.84544   0.85552
 Alpha virt. eigenvalues --    0.86599   0.87852   0.89351   0.90088   0.90647
 Alpha virt. eigenvalues --    0.92818   0.92850   0.94859   0.97532   1.00579
 Alpha virt. eigenvalues --    1.03310   1.08447   1.10240   1.12034   1.12584
 Alpha virt. eigenvalues --    1.16504   1.16733   1.17926   1.18949   1.19783
 Alpha virt. eigenvalues --    1.20397   1.22247   1.23168   1.23423   1.27545
 Alpha virt. eigenvalues --    1.27835   1.28814   1.30975   1.32039   1.34531
 Alpha virt. eigenvalues --    1.35055   1.39343   1.40829   1.41961   1.43085
 Alpha virt. eigenvalues --    1.44289   1.46182   1.49521   1.49636   1.50930
 Alpha virt. eigenvalues --    1.51196   1.52277   1.58861   1.61755   1.65053
 Alpha virt. eigenvalues --    1.65104   1.66596   1.73107   1.73452   1.75614
 Alpha virt. eigenvalues --    1.75628   1.76927   1.77211   1.81809   1.85634
 Alpha virt. eigenvalues --    1.88450   1.95410   1.96540   1.99589   2.05109
 Alpha virt. eigenvalues --    2.06462   2.08223   2.16352   2.16705   2.16768
 Alpha virt. eigenvalues --    2.26825   2.31604   2.31728   2.41464   2.45551
 Alpha virt. eigenvalues --    2.54093   2.54727   2.60143   2.61902   2.64354
 Alpha virt. eigenvalues --    2.72186   2.72489   2.72716   2.73145   2.77317
 Alpha virt. eigenvalues --    2.79252   2.79486   2.80038   2.80964   2.82319
 Alpha virt. eigenvalues --    2.82776   2.83964   2.87697   2.89061   2.91028
 Alpha virt. eigenvalues --    2.94333   3.00540   3.01361   3.03161   3.04312
 Alpha virt. eigenvalues --    3.08867   3.11661   3.12696   3.14487   3.16233
 Alpha virt. eigenvalues --    3.17008   3.18793   3.19035   3.19738   3.22592
 Alpha virt. eigenvalues --    3.23410   3.24553   3.24651   3.26903   3.30867
 Alpha virt. eigenvalues --    3.31532   3.35270   3.39213   3.39404   3.40782
 Alpha virt. eigenvalues --    3.43329   3.44589   3.46762   3.51458   3.52982
 Alpha virt. eigenvalues --    3.54254   3.59176   3.62118   3.62931   3.63426
 Alpha virt. eigenvalues --    3.63763   3.65091   3.65661   3.67303   3.67748
 Alpha virt. eigenvalues --    3.67872   3.68430   3.71338   3.72285   3.72557
 Alpha virt. eigenvalues --    3.74346   3.76369   3.76663   3.78583   3.79854
 Alpha virt. eigenvalues --    3.81829   3.84629   3.87323   3.87657   3.90742
 Alpha virt. eigenvalues --    3.90924   3.91300   3.94377   3.94960   3.97273
 Alpha virt. eigenvalues --    4.01369   4.02965   4.05679   4.14082   4.16634
 Alpha virt. eigenvalues --    4.18895   4.36028   4.41113   4.62252   4.64821
 Alpha virt. eigenvalues --    4.69990   4.78708   4.81463   4.94319   5.20835
 Alpha virt. eigenvalues --    5.49936   5.51947  23.57146  23.91511  24.17343
 Alpha virt. eigenvalues --   24.20656  24.23729  24.26215  24.33506  24.35064
 Alpha virt. eigenvalues --   24.38392  24.48613
          Condensed to atoms (all electrons):
               1          2          3          4          5          6
     1  C    5.763578   0.311995  -0.222884  -0.280816  -0.154743   0.069061
     2  C    0.311995   5.224734   0.311995   0.040752   0.022922  -0.079230
     3  C   -0.222884   0.311995   5.763578   0.263940  -0.031429   0.039369
     4  C   -0.280816   0.040752   0.263940   5.838784  -0.120171  -0.276719
     5  C   -0.154743   0.022922  -0.031429  -0.120171   5.601937   0.198901
     6  C    0.069061  -0.079230   0.039369  -0.276719   0.198901   5.591786
     7  C   -0.043814   0.038091  -0.043814  -0.102093   0.008322   0.437869
     8  C    0.039369  -0.079230   0.069061   0.001441  -0.082898  -0.055071
     9  C   -0.031429   0.022922  -0.154743   0.681387  -0.313052  -0.082898
    10  C    0.263940   0.040752  -0.280816  -0.227132   0.681387   0.001441
    11  H   -0.020442   0.010303  -0.002141   0.026114  -0.003497  -0.004230
    12  H    0.006508  -0.000628   0.000719  -0.013479  -0.000763   0.033488
    13  H    0.000077  -0.000073   0.000077   0.004490   0.028717  -0.060426
    14  H    0.000719  -0.000628   0.006508   0.035710  -0.060334   0.390902
    15  H   -0.002141   0.010303  -0.020442  -0.064868   0.424763  -0.074166
    16  H    0.028013  -0.060721   0.467673  -0.088632   0.001054   0.014575
    17  H   -0.047203   0.405884  -0.047203   0.013300   0.002390   0.000615
    18  H    0.467673  -0.060721   0.028013  -0.010072  -0.009119  -0.000466
               7          8          9         10         11         12
     1  C   -0.043814   0.039369  -0.031429   0.263940  -0.020442   0.006508
     2  C    0.038091  -0.079230   0.022922   0.040752   0.010303  -0.000628
     3  C   -0.043814   0.069061  -0.154743  -0.280816  -0.002141   0.000719
     4  C   -0.102093   0.001441   0.681387  -0.227132   0.026114  -0.013479
     5  C    0.008322  -0.082898  -0.313052   0.681387  -0.003497  -0.000763
     6  C    0.437869  -0.055071  -0.082898   0.001441  -0.004230   0.033488
     7  C    5.086959   0.437869   0.008322  -0.102093   0.031450  -0.059196
     8  C    0.437869   5.591786   0.198901  -0.276719  -0.074166   0.390902
     9  C    0.008322   0.198901   5.601937  -0.120171   0.424763  -0.060334
    10  C   -0.102093  -0.276719  -0.120171   5.838784  -0.064868   0.035710
    11  H    0.031450  -0.074166   0.424763  -0.064868   0.596342  -0.012179
    12  H   -0.059196   0.390902  -0.060334   0.035710  -0.012179   0.616306
    13  H    0.385700  -0.060426   0.028717   0.004490  -0.000579  -0.012816
    14  H   -0.059196   0.033488  -0.000763  -0.013479   0.000047  -0.000583
    15  H    0.031450  -0.004230  -0.003497   0.026114   0.000041   0.000047
    16  H   -0.000232  -0.000466  -0.009119  -0.010072   0.000040  -0.000001
    17  H    0.000159   0.000615   0.002390   0.013300  -0.000057  -0.000001
    18  H   -0.000232   0.014575   0.001054  -0.088632   0.004312  -0.000015
              13         14         15         16         17         18
     1  C    0.000077   0.000719  -0.002141   0.028013  -0.047203   0.467673
     2  C   -0.000073  -0.000628   0.010303  -0.060721   0.405884  -0.060721
     3  C    0.000077   0.006508  -0.020442   0.467673  -0.047203   0.028013
     4  C    0.004490   0.035710  -0.064868  -0.088632   0.013300  -0.010072
     5  C    0.028717  -0.060334   0.424763   0.001054   0.002390  -0.009119
     6  C   -0.060426   0.390902  -0.074166   0.014575   0.000615  -0.000466
     7  C    0.385700  -0.059196   0.031450  -0.000232   0.000159  -0.000232
     8  C   -0.060426   0.033488  -0.004230  -0.000466   0.000615   0.014575
     9  C    0.028717  -0.000763  -0.003497  -0.009119   0.002390   0.001054
    10  C    0.004490  -0.013479   0.026114  -0.010072   0.013300  -0.088632
    11  H   -0.000579   0.000047   0.000041   0.000040  -0.000057   0.004312
    12  H   -0.012816  -0.000583   0.000047  -0.000001  -0.000001  -0.000015
    13  H    0.608736  -0.012816  -0.000579   0.000000   0.000000   0.000000
    14  H   -0.012816   0.616306  -0.012179  -0.000015  -0.000001  -0.000001
    15  H   -0.000579  -0.012179   0.596342   0.004312  -0.000057   0.000040
    16  H    0.000000  -0.000015   0.004312   0.589965  -0.004123  -0.000448
    17  H    0.000000  -0.000001  -0.000057  -0.004123   0.585211  -0.004123
    18  H    0.000000  -0.000001   0.000040  -0.000448  -0.004123   0.589965
 Mulliken charges:
               1
     1  C   -0.147464
     2  C   -0.159425
     3  C   -0.147464
     4  C    0.278063
     5  C   -0.194386
     6  C   -0.144802
     7  C   -0.055522
     8  C   -0.144802
     9  C   -0.194386
    10  C    0.278063
    11  H    0.088746
    12  H    0.076313
    13  H    0.086712
    14  H    0.076313
    15  H    0.088746
    16  H    0.068195
    17  H    0.078906
    18  H    0.068195
 Sum of Mulliken charges =  -0.00000
 Mulliken charges with hydrogens summed into heavy atoms:
               1
     1  C   -0.079269
     2  C   -0.080519
     3  C   -0.079269
     4  C    0.278063
     5  C   -0.105641
     6  C   -0.068488
     7  C    0.031190
     8  C   -0.068488
     9  C   -0.105641
    10  C    0.278063
 Electronic spatial extent (au):  <R**2>=           1211.3332
 Charge=             -0.0000 electrons
 Dipole moment (field-independent basis, Debye):
    X=              0.0000    Y=             -0.0000    Z=             -1.2429  Tot=              1.2429
 Quadrupole moment (field-independent basis, Debye-Ang):
   XX=            -63.1344   YY=            -52.4221   ZZ=            -53.4709
   XY=              0.0000   XZ=             -0.0000   YZ=             -0.0000
 Traceless Quadrupole moment (field-independent basis, Debye-Ang):
   XX=             -6.7919   YY=              3.9204   ZZ=              2.8715
   XY=              0.0000   XZ=             -0.0000   YZ=             -0.0000
 Octapole moment (field-independent basis, Debye-Ang**2):
  XXX=              0.0000  YYY=              0.0000  ZZZ=             -5.9490  XYY=              0.0000
  XXY=             -0.0000  XXZ=             -1.2486  XZZ=              0.0000  YZZ=              0.0000
  YYZ=             -2.6387  XYZ=             -0.0000
 Hexadecapole moment (field-independent basis, Debye-Ang**3):
 XXXX=            -75.4338 YYYY=           -490.1883 ZZZZ=          -1015.2907 XXXY=             -0.0000
 XXXZ=             -0.0000 YYYX=             -0.0000 YYYZ=             -0.0000 ZZZX=             -0.0000
 ZZZY=             -0.0000 XXYY=           -113.0587 XXZZ=           -220.5725 YYZZ=           -261.2857
 XXYZ=              0.0000 YYXZ=             -0.0000 ZZXY=             -0.0000
 N-N= 4.737846711195D+02 E-N=-1.843885119885D+03  KE= 3.858944687229D+02
 Symmetry A1   KE= 2.230130613341D+02
 Symmetry A2   KE= 4.606734354593D+00
 Symmetry B1   KE= 6.253603422847D+00
 Symmetry B2   KE= 1.520210696114D+02
 Calling FoFJK, ICntrl=      2127 FMM=F ISym2X=1 I1Cent= 0 IOpClX= 0 NMat=1 NMatS=1 NMatT=0.
 ***** Axes restored to original set *****
 -------------------------------------------------------------------
 Center     Atomic                   Forces (Hartrees/Bohr)
 Number     Number              X              Y              Z
 -------------------------------------------------------------------
      1        6          -0.085792991   -0.000000000   -0.049843178
      2        6          -0.064893370   -0.000000000    0.047795207
      3        6           0.022151113    0.000000000    0.096716637
      4        6           0.061182126    0.000000000    0.060382339
      5        6           0.024431975    0.000000000    0.044391447
      6        6           0.064285336    0.000000000    0.016796035
      7        6           0.045644470    0.000000000   -0.033618024
      8        6           0.003028853   -0.000000000   -0.066374222
      9        6          -0.035146252   -0.000000000   -0.036500178
     10        6          -0.039516247   -0.000000000   -0.076339673
     11        1           0.006947356    0.000000000    0.008392184
     12        1           0.000034691    0.000000000    0.011269722
     13        1          -0.008955991   -0.000000000    0.006596258
     14        1          -0.010752211   -0.000000000   -0.003376064
     15        1          -0.005953681   -0.000000000   -0.009124045
     16        1          -0.000416214   -0.000000000   -0.013856800
     17        1           0.010611354    0.000000000   -0.007815465
     18        1           0.013109680    0.000000000    0.004507820
 -------------------------------------------------------------------
 Cartesian Forces:  Max     0.096716637 RMS     0.033142476

 GradGradGradGradGradGradGradGradGradGradGradGradGradGradGradGradGradGrad
 Berny optimization.
 FormGI is forming the generalized inverse of G from B-inverse, IUseBI=4.
 Internal  Forces:  Max     0.125054514 RMS     0.024998694
 Search for a local minimum.
 Step number   1 out of a maximum of  103
 All quantities printed in internal units (Hartrees-Bohrs-Radians)
 Mixed Optimization -- RFO/linear search
 Second derivative matrix not updated -- first step.
 ITU=  0
     Eigenvalues ---    0.02839   0.02841   0.02854   0.02855   0.02860
     Eigenvalues ---    0.02870   0.02872   0.02873   0.02874   0.02874
     Eigenvalues ---    0.02878   0.02885   0.02886   0.02888   0.02896
     Eigenvalues ---    0.16000   0.16000   0.16000   0.16000   0.16000
     Eigenvalues ---    0.16000   0.16000   0.16000   0.22000   0.22000
     Eigenvalues ---    0.22213   0.22961   0.24086   0.24769   0.33067
     Eigenvalues ---    0.33074   0.33074   0.33151   0.33151   0.33298
     Eigenvalues ---    0.33298   0.33375   0.46004   0.48016   0.52101
     Eigenvalues ---    0.53442   0.56147   0.56933   0.57016   0.57088
     Eigenvalues ---    0.57092   0.57290   0.57293
 RFO step:  Lambda=-9.06091289D-02 EMin= 2.83866283D-02
 Linear search not attempted -- first point.
 Maximum step size (   0.300) exceeded in Quadratic search.
    -- Step size scaled by   0.791
 Iteration  1 RMS(Cart)=  0.05170929 RMS(Int)=  0.00021889
 Iteration  2 RMS(Cart)=  0.00020277 RMS(Int)=  0.00009312
 Iteration  3 RMS(Cart)=  0.00000006 RMS(Int)=  0.00009312
 ClnCor:  largest displacement from symmetrization is 3.21D-09 for atom    12.
 Variable       Old X    -DE/DX   Delta X   Delta X   Delta X     New X
                                 (Linear)    (Quad)   (Total)
    R1        2.53023   0.07347   0.00000   0.08441   0.08424   2.61447
    R2        2.54207   0.06627   0.00000   0.08171   0.08178   2.62384
    R3        2.08531  -0.01335   0.00000  -0.02494  -0.02494   2.06038
    R4        2.53023   0.07347   0.00000   0.08441   0.08424   2.61447
    R5        2.08398  -0.01318   0.00000  -0.02458  -0.02458   2.05940
    R6        2.54207   0.06627   0.00000   0.08171   0.08178   2.62384
    R7        2.08531  -0.01335   0.00000  -0.02494  -0.02494   2.06038
    R8        2.53065   0.05725   0.00000   0.06958   0.06967   2.60033
    R9        2.53890   0.12505   0.00000   0.15721   0.15756   2.69646
   R10        2.53314   0.05922   0.00000   0.07034   0.07030   2.60345
   R11        2.08786  -0.01075   0.00000  -0.02016  -0.02016   2.06771
   R12        2.53395   0.05939   0.00000   0.06915   0.06902   2.60297
   R13        2.08922  -0.01126   0.00000  -0.02115  -0.02115   2.06807
   R14        2.53395   0.05939   0.00000   0.06915   0.06902   2.60297
   R15        2.08933  -0.01112   0.00000  -0.02090  -0.02090   2.06843
   R16        2.53314   0.05922   0.00000   0.07034   0.07030   2.60345
   R17        2.08922  -0.01126   0.00000  -0.02115  -0.02115   2.06807
   R18        2.53065   0.05725   0.00000   0.06958   0.06967   2.60033
   R19        2.08786  -0.01075   0.00000  -0.02016  -0.02016   2.06771
    A1        1.89877  -0.00275   0.00000  -0.00893  -0.00897   1.88980
    A2        2.17606   0.00529   0.00000   0.01682   0.01684   2.19290
    A3        2.20836  -0.00254   0.00000  -0.00789  -0.00787   2.20049
    A4        1.87196   0.01531   0.00000   0.02903   0.02878   1.90073
    A5        2.20561  -0.00766   0.00000  -0.01452  -0.01439   2.19123
    A6        2.20561  -0.00766   0.00000  -0.01452  -0.01439   2.19123
    A7        1.89877  -0.00275   0.00000  -0.00893  -0.00897   1.88980
    A8        2.17606   0.00529   0.00000   0.01682   0.01684   2.19290
    A9        2.20836  -0.00254   0.00000  -0.00789  -0.00787   2.20049
   A10        2.14961   0.01353   0.00000   0.02212   0.02182   2.17143
   A11        1.87764  -0.00491   0.00000  -0.00559  -0.00542   1.87223
   A12        2.25593  -0.00862   0.00000  -0.01654  -0.01640   2.23953
   A13        2.22440   0.00416   0.00000   0.01378   0.01389   2.23829
   A14        2.03601  -0.00393   0.00000  -0.01273  -0.01278   2.02322
   A15        2.02278  -0.00023   0.00000  -0.00105  -0.00111   2.02168
   A16        2.24691   0.00115   0.00000  -0.00167  -0.00181   2.24511
   A17        2.01721  -0.00002   0.00000   0.00257   0.00264   2.01984
   A18        2.01907  -0.00112   0.00000  -0.00090  -0.00083   2.01823
   A19        2.25349   0.00663   0.00000   0.00885   0.00862   2.26211
   A20        2.01485  -0.00331   0.00000  -0.00443  -0.00431   2.01054
   A21        2.01485  -0.00331   0.00000  -0.00443  -0.00431   2.01054
   A22        2.24691   0.00115   0.00000  -0.00167  -0.00181   2.24511
   A23        2.01907  -0.00112   0.00000  -0.00090  -0.00083   2.01823
   A24        2.01721  -0.00002   0.00000   0.00257   0.00264   2.01984
   A25        2.22440   0.00416   0.00000   0.01378   0.01389   2.23829
   A26        2.02278  -0.00023   0.00000  -0.00105  -0.00111   2.02168
   A27        2.03601  -0.00393   0.00000  -0.01273  -0.01278   2.02322
   A28        1.87764  -0.00491   0.00000  -0.00559  -0.00542   1.87223
   A29        2.14961   0.01353   0.00000   0.02212   0.02182   2.17143
   A30        2.25593  -0.00862   0.00000  -0.01654  -0.01640   2.23953
    D1       -0.00000   0.00000   0.00000   0.00000   0.00000   0.00000
    D2        3.14159   0.00000   0.00000  -0.00000   0.00000   3.14159
    D3        3.14159  -0.00000   0.00000  -0.00000   0.00000   3.14159
    D4        0.00000  -0.00000   0.00000  -0.00000   0.00000   0.00000
    D5        0.00000  -0.00000   0.00000  -0.00000   0.00000   0.00000
    D6        3.14159   0.00000   0.00000   0.00000   0.00000   3.14159
    D7        3.14159   0.00000   0.00000   0.00000   0.00000   3.14159
    D8       -0.00000   0.00000   0.00000   0.00000   0.00000   0.00000
    D9        0.00000  -0.00000   0.00000  -0.00000   0.00000   0.00000
   D10        3.14159   0.00000   0.00000   0.00000   0.00000   3.14159
   D11        3.14159   0.00000   0.00000   0.00000   0.00000   3.14159
   D12       -0.00000   0.00000   0.00000   0.00000   0.00000   0.00000
   D13        3.14159  -0.00000   0.00000  -0.00000   0.00000   3.14159
   D14       -0.00000  -0.00000   0.00000  -0.00000   0.00000   0.00000
   D15        0.00000  -0.00000   0.00000  -0.00000   0.00000   0.00000
   D16        3.14159  -0.00000   0.00000  -0.00000   0.00000   3.14159
   D17        3.14159  -0.00000   0.00000  -0.00000   0.00000   3.14159
   D18        0.00000  -0.00000   0.00000  -0.00000   0.00000   0.00000
   D19       -0.00000  -0.00000   0.00000  -0.00000   0.00000   0.00000
   D20        3.14159  -0.00000   0.00000  -0.00000   0.00000   3.14159
   D21       -0.00000   0.00000   0.00000   0.00000   0.00000   0.00000
   D22        3.14159  -0.00000   0.00000  -0.00000   0.00000   3.14159
   D23        3.14159   0.00000   0.00000   0.00000   0.00000   3.14159
   D24        0.00000  -0.00000   0.00000  -0.00000   0.00000   0.00000
   D25       -0.00000   0.00000   0.00000   0.00000   0.00000   0.00000
   D26        3.14159  -0.00000   0.00000  -0.00000   0.00000   3.14159
   D27        3.14159   0.00000   0.00000   0.00000   0.00000   3.14159
   D28       -0.00000   0.00000   0.00000   0.00000   0.00000   0.00000
   D29        0.00000   0.00000   0.00000   0.00000   0.00000   0.00000
   D30        3.14159  -0.00000   0.00000  -0.00000   0.00000   3.14159
   D31        3.14159   0.00000   0.00000   0.00000   0.00000   3.14159
   D32       -0.00000   0.00000   0.00000   0.00000   0.00000   0.00000
   D33       -0.00000  -0.00000   0.00000  -0.00000   0.00000   0.00000
   D34        3.14159  -0.00000   0.00000  -0.00000   0.00000   3.14159
   D35        3.14159   0.00000   0.00000   0.00000   0.00000   3.14159
   D36        0.00000  -0.00000   0.00000  -0.00000   0.00000   0.00000
   D37       -0.00000  -0.00000   0.00000  -0.00000   0.00000   0.00000
   D38        3.14159  -0.00000   0.00000  -0.00000   0.00000   3.14159
   D39        3.14159   0.00000   0.00000   0.00000   0.00000   3.14159
   D40        0.00000  -0.00000   0.00000  -0.00000   0.00000   0.00000
   D41        3.14159   0.00000   0.00000   0.00000   0.00000   3.14159
   D42        0.00000   0.00000   0.00000   0.00000   0.00000   0.00000
   D43       -0.00000   0.00000   0.00000   0.00000   0.00000   0.00000
   D44        3.14159   0.00000   0.00000   0.00000   0.00000   3.14159
         Item               Value     Threshold  Converged?
 Maximum Force            0.125055     0.000450     NO 
 RMS     Force            0.024999     0.000300     NO 
 Maximum Displacement     0.153410     0.001800     NO 
 RMS     Displacement     0.051652     0.001200     NO 
 Predicted change in Energy=-4.740237D-02
 GradGradGradGradGradGradGradGradGradGradGradGradGradGradGradGradGradGrad

                          Input orientation:                          
 ---------------------------------------------------------------------
 Center     Atomic      Atomic             Coordinates (Angstroms)
 Number     Number       Type             X           Y           Z
 ---------------------------------------------------------------------
      1          6           0       -0.081181    0.000000    0.000695
      2          6           0       -0.061275    0.000000    1.384072
      3          6           0        1.253934    0.000000    1.813432
      4          6           0        2.077044    0.000000    0.695237
      5          6           0        3.452286    0.000000    0.741903
      6          6           0        4.341302    0.000000   -0.310554
      7          6           0        4.074301    0.000000   -1.661859
      8          6           0        2.863015    0.000000   -2.317680
      9          6           0        1.594218    0.000000   -1.780867
     10          6           0        1.230846    0.000000   -0.453679
     11          1           0        0.771363    0.000000   -2.502081
     12          1           0        2.916397    0.000000   -3.410754
     13          1           0        4.955626    0.000000   -2.310972
     14          1           0        5.401015    0.000000   -0.037295
     15          1           0        3.896957    0.000000    1.741657
     16          1           0        1.582962    0.000000    2.852905
     17          1           0       -0.938749    0.000000    2.030348
     18          1           0       -0.976271    0.000000   -0.621862
 ---------------------------------------------------------------------
                    Distance matrix (angstroms):
                    1          2          3          4          5
     1  C    0.000000
     2  C    1.383520   0.000000
     3  C    2.251344   1.383520   0.000000
     4  C    2.267229   2.246532   1.388478   0.000000
     5  C    3.610371   3.571764   2.445593   1.376033   0.000000
     6  C    4.433422   4.717461   3.747419   2.477595   1.377684
     7  C    4.475726   5.136214   4.475726   3.089489   2.482937
     8  C    3.747419   4.717461   4.433422   3.113747   3.115813
     9  C    2.445593   3.571764   3.610371   2.522739   3.133175
    10  C    1.388478   2.246532   2.267229   1.426906   2.522739
    11  H    2.643997   3.974352   4.342411   3.453643   4.208418
    12  H    4.541307   5.644191   5.482327   4.190905   4.187092
    13  H    5.541952   6.230782   5.541952   4.162154   3.402951
    14  H    5.482327   5.644191   4.541307   3.403730   2.098736
    15  H    4.342411   3.974352   2.643997   2.099304   1.094185
    16  H    3.302192   2.204765   1.090304   2.213515   2.819699
    17  H    2.203387   1.089786   2.203387   3.298111   4.576165
    18  H    1.090304   2.204765   3.302192   3.325279   4.633786
                    6          7          8          9         10
     6  C    0.000000
     7  C    1.377431   0.000000
     8  C    2.492767   1.377431   0.000000
     9  C    3.115813   2.482937   1.377684   0.000000
    10  C    3.113747   3.089489   2.477595   1.376033   0.000000
    11  H    4.188944   3.408134   2.099764   1.094185   2.099304
    12  H    3.411978   2.097469   1.094377   2.098736   3.403730
    13  H    2.092622   1.094569   2.092622   3.402951   4.162154
    14  H    1.094377   2.097469   3.411978   4.187092   4.190905
    15  H    2.099764   3.408134   4.188944   4.208418   3.453643
    16  H    4.197131   5.156537   5.326677   4.633786   3.325279
    17  H    5.775704   6.226000   5.775704   4.576165   3.298111
    18  H    5.326677   5.156537   4.197131   2.819699   2.213515
                   11         12         13         14         15
    11  H    0.000000
    12  H    2.329562   0.000000
    13  H    4.188625   2.316889   0.000000
    14  H    5.244887   4.189696   2.316889   0.000000
    15  H    5.270546   5.244887   4.188625   2.329562   0.000000
    16  H    5.416140   6.404021   6.167697   4.788610   2.566992
    17  H    4.844316   6.668415   7.320569   6.668415   4.844316
    18  H    2.566992   4.788610   6.167697   6.404021   5.416140
                   16         17         18
    16  H    0.000000
    17  H    2.652476   0.000000
    18  H    4.315516   2.652476   0.000000
 Stoichiometry    C10H8
 Framework group  C2V[C2(HCCH),SGV(C8H6)]
 Deg. of freedom    17
 Full point group                 C2V     NOp   4
 Largest Abelian subgroup         C2V     NOp   4
 Largest concise Abelian subgroup C2      NOp   2
                         Standard orientation:                         
 ---------------------------------------------------------------------
 Center     Atomic      Atomic             Coordinates (Angstroms)
 Number     Number       Type             X           Y           Z
 ---------------------------------------------------------------------
      1          6           0        0.000000   -1.125672    1.866638
      2          6           0        0.000000   -0.000000    2.670995
      3          6           0        0.000000    1.125672    1.866638
      4          6           0       -0.000000    0.713453    0.540763
      5          6           0       -0.000000    1.566587   -0.538880
      6          6           0       -0.000000    1.246384   -1.878837
      7          6           0       -0.000000    0.000000   -2.465219
      8          6           0       -0.000000   -1.246384   -1.878837
      9          6           0       -0.000000   -1.566587   -0.538880
     10          6           0       -0.000000   -0.713453    0.540763
     11          1           0        0.000000   -2.635273   -0.304036
     12          1           0       -0.000000   -2.094848   -2.570046
     13          1           0       -0.000000    0.000000   -3.559787
     14          1           0        0.000000    2.094848   -2.570046
     15          1           0        0.000000    2.635273   -0.304036
     16          1           0        0.000000    2.157758    2.218151
     17          1           0        0.000000   -0.000000    3.760781
     18          1           0       -0.000000   -2.157758    2.218151
 ---------------------------------------------------------------------
 Rotational constants (GHZ):           2.9547440           1.2915259           0.8987013
 Standard basis: 6-311+G(2d,p) (5D, 7F)
 There are   137 symmetry adapted cartesian basis functions of A1  symmetry.
 There are    39 symmetry adapted cartesian basis functions of A2  symmetry.
 There are    49 symmetry adapted cartesian basis functions of B1  symmetry.
 There are   113 symmetry adapted cartesian basis functions of B2  symmetry.
 There are   125 symmetry adapted basis functions of A1  symmetry.
 There are    39 symmetry adapted basis functions of A2  symmetry.
 There are    49 symmetry adapted basis functions of B1  symmetry.
 There are   105 symmetry adapted basis functions of B2  symmetry.
   318 basis functions,   484 primitive gaussians,   338 cartesian basis functions
    34 alpha electrons       34 beta electrons
       nuclear repulsion energy       460.4982846563 Hartrees.
 NAtoms=   18 NActive=   18 NUniq=   11 SFac= 2.68D+00 NAtFMM=   60 NAOKFM=F Big=F
 Integral buffers will be    131072 words long.
 Raffenetti 2 integral format.
 Two-electron integral symmetry is turned on.
 One-electron integrals computed using PRISM.
 NBasis=   318 RedAO= T EigKep=  1.56D-06  NBF=   125    39    49   105
 NBsUse=   316 1.00D-06 EigRej=  8.74D-07 NBFU=   124    39    49   104
 Initial guess from the checkpoint file:  "/scratch/webmo-2372/3106/Gau-10433.chk"
 B after Tr=    -0.000000    0.000000   -0.000000
         Rot=    1.000000   -0.000000   -0.000000   -0.000000 Ang=   0.00 deg.
 Initial guess orbital symmetries:
       Occupied  (B2) (A1) (A1) (B2) (A1) (A1) (B2) (A1) (B2) (A1)
                 (A1) (A1) (B2) (A1) (B2) (A1) (B2) (A1) (A1) (B2)
                 (A1) (B2) (A1) (B1) (B2) (A1) (A1) (B2) (B2) (B1)
                 (A1) (A2) (B1) (A2)
       Virtual   (B1) (A2) (A1) (B2) (A1) (A1) (B2) (B1) (A1) (A1)
                 (B2) (A2) (B1) (B1) (A1) (A1) (B2) (A2) (B2) (B1)
                 (B1) (A1) (B1) (A1) (B2) (A2) (B2) (A1) (B2) (B1)
                 (A1) (A2) (B2) (A1) (B1) (B2) (A2) (A1) (A1) (A1)
                 (B2) (A1) (A1) (B2) (B2) (A1) (B2) (B2) (A1) (B2)
                 (A1) (A1) (B2) (A1) (B2) (A1) (A1) (A1) (B2) (B2)
                 (B1) (A1) (B2) (B1) (B2) (A1) (B1) (A2) (A1) (A1)
                 (B2) (B2) (B1) (A2) (A1) (B1) (B2) (B2) (B1) (A2)
                 (A1) (A1) (B2) (B1) (B1) (A2) (A1) (A1) (A2) (A1)
                 (B2) (B1) (A1) (B2) (A2) (A1) (A1) (B2) (A1) (B2)
                 (A1) (A2) (B2) (A1) (B2) (B2) (B1) (A1) (A1) (B2)
                 (A2) (B1) (B2) (A1) (B2) (A1) (A2) (A1) (B2) (B1)
                 (B1) (B2) (A1) (A2) (A1) (B2) (B2) (B1) (A1) (A2)
                 (A1) (B1) (A1) (B2) (B2) (A1) (B1) (A1) (B2) (B2)
                 (A1) (A2) (B2) (A1) (B2) (A2) (A1) (B2) (A1) (B2)
                 (A1) (B1) (A1) (B2) (B2) (B1) (A1) (A2) (A2) (B1)
                 (A1) (A1) (B2) (A2) (A2) (B2) (B1) (B2) (B1) (A1)
                 (B2) (B2) (A1) (A1) (A1) (B2) (A1) (A1) (B2) (B1)
                 (B1) (A1) (B2) (A1) (B2) (A1) (B2) (A1) (B2) (A1)
                 (B1) (A2) (B1) (A2) (A2) (A2) (B2) (B1) (B1) (B2)
                 (A1) (A1) (B1) (B2) (A1) (A2) (A1) (B1) (B2) (A1)
                 (B1) (A2) (A2) (B1) (A1) (B2) (B1) (B2) (A1) (A2)
                 (A1) (B2) (A1) (B2) (A2) (B1) (A1) (B2) (B1) (A2)
                 (A1) (B1) (A1) (A2) (B2) (A1) (B1) (B2) (B2) (A2)
                 (A1) (B1) (B2) (A1) (B2) (A1) (A2) (A1) (A1) (B2)
                 (B2) (A1) (A2) (A1) (B2) (A1) (A1) (B2) (A1) (B2)
                 (B2) (B2) (A1) (A1) (B2) (A1) (A1) (B2) (B2) (A1)
                 (B2) (B2) (A1) (A1) (B2) (A1) (B2) (A1) (B2) (A1)
                 (A1) (B2)
 ExpMin= 4.38D-02 ExpMax= 4.56D+03 ExpMxC= 6.82D+02 IAcc=2 IRadAn=         4 AccDes= 0.00D+00
 Harris functional with IExCor=  402 and IRadAn=       4 diagonalized for initial guess.
 HarFok:  IExCor=  402 AccDes= 0.00D+00 IRadAn=         4 IDoV= 1 UseB2=F ITyADJ=14
 ICtDFT=  3500011 ScaDFX=  1.000000  1.000000  1.000000  1.000000
 FoFCou: FMM=F IPFlag=           0 FMFlag=      100000 FMFlg1=           0
         NFxFlg=           0 DoJE=T BraDBF=F KetDBF=T FulRan=T
         wScrn=  0.000000 ICntrl=       500 IOpCl=  0 I1Cent=   200000004 NGrid=           0
         NMat0=    1 NMatS0=      1 NMatT0=    0 NMatD0=    1 NMtDS0=    0 NMtDT0=    0
 Petite list used in FoFCou.
 Requested convergence on RMS density matrix=1.00D-08 within 128 cycles.
 Requested convergence on MAX density matrix=1.00D-06.
 Requested convergence on             energy=1.00D-06.
 No special actions if energy rises.
 SCF Done:  E(RB3LYP) =  -385.939924634     A.U. after   12 cycles
            NFock= 12  Conv=0.54D-08     -V/T= 2.0033
 Calling FoFJK, ICntrl=      2127 FMM=F ISym2X=1 I1Cent= 0 IOpClX= 0 NMat=1 NMatS=1 NMatT=0.
 ***** Axes restored to original set *****
 -------------------------------------------------------------------
 Center     Atomic                   Forces (Hartrees/Bohr)
 Number     Number              X              Y              Z
 -------------------------------------------------------------------
      1        6          -0.024167637   -0.000000000   -0.012421347
      2        6          -0.017185874   -0.000000000    0.012657724
      3        6           0.004693455    0.000000000    0.026764454
      4        6           0.023971089    0.000000000    0.027714575
      5        6           0.005258996    0.000000000    0.011532719
      6        6           0.020548612    0.000000000    0.005589976
      7        6           0.014099805    0.000000000   -0.010384776
      8        6           0.000756943   -0.000000000   -0.021281925
      9        6          -0.009453686   -0.000000000   -0.008443249
     10        6          -0.019356675   -0.000000000   -0.031113179
     11        1           0.003012109    0.000000000    0.003697805
     12        1          -0.000166351    0.000000000    0.005702515
     13        1          -0.004196089   -0.000000000    0.003090500
     14        1          -0.005495204   -0.000000000   -0.001532672
     15        1          -0.002637895   -0.000000000   -0.003973421
     16        1          -0.000211377   -0.000000000   -0.006629041
     17        1           0.004261794    0.000000000   -0.003138893
     18        1           0.006267984    0.000000000    0.002168234
 -------------------------------------------------------------------
 Cartesian Forces:  Max     0.031113179 RMS     0.010892077

 GradGradGradGradGradGradGradGradGradGradGradGradGradGradGradGradGradGrad
 Berny optimization.
 Using GEDIIS/GDIIS optimizer.
 FormGI is forming the generalized inverse of G from B-inverse, IUseBI=4.
 Internal  Forces:  Max     0.042200979 RMS     0.007229147
 Search for a local minimum.
 Step number   2 out of a maximum of  103
 All quantities printed in internal units (Hartrees-Bohrs-Radians)
 Mixed Optimization -- RFO/linear search
 Update second derivatives using D2CorX and points    1    2
 DE= -4.51D-02 DEPred=-4.74D-02 R= 9.52D-01
 TightC=F SS=  1.41D+00  RLast= 3.00D-01 DXNew= 5.0454D-01 8.9999D-01
 Trust test= 9.52D-01 RLast= 3.00D-01 DXMaxT set to 5.05D-01
 ITU=  1  0
 Use linear search instead of GDIIS.
     Eigenvalues ---    0.02839   0.02841   0.02854   0.02855   0.02861
     Eigenvalues ---    0.02870   0.02872   0.02873   0.02874   0.02875
     Eigenvalues ---    0.02878   0.02885   0.02886   0.02888   0.02896
     Eigenvalues ---    0.15998   0.16000   0.16000   0.16000   0.16000
     Eigenvalues ---    0.16000   0.16000   0.16004   0.22000   0.22003
     Eigenvalues ---    0.22272   0.22928   0.24064   0.24757   0.32834
     Eigenvalues ---    0.33070   0.33074   0.33135   0.33151   0.33245
     Eigenvalues ---    0.33298   0.33373   0.45805   0.48637   0.52364
     Eigenvalues ---    0.53622   0.55566   0.56901   0.57016   0.57101
     Eigenvalues ---    0.57103   0.57288   0.61969
 RFO step:  Lambda=-8.84593526D-04 EMin= 2.83925627D-02
 Quartic linear search produced a step of  0.49766.
 Iteration  1 RMS(Cart)=  0.02264087 RMS(Int)=  0.00010037
 Iteration  2 RMS(Cart)=  0.00008023 RMS(Int)=  0.00007541
 Iteration  3 RMS(Cart)=  0.00000001 RMS(Int)=  0.00007541
 ClnCor:  largest displacement from symmetrization is 1.30D-09 for atom    18.
 Variable       Old X    -DE/DX   Delta X   Delta X   Delta X     New X
                                 (Linear)    (Quad)   (Total)
    R1        2.61447   0.01909   0.04192  -0.00651   0.03527   2.64975
    R2        2.62384   0.01596   0.04070  -0.00761   0.03314   2.65698
    R3        2.06038  -0.00638  -0.01241  -0.01283  -0.02524   2.03514
    R4        2.61447   0.01909   0.04192  -0.00651   0.03527   2.64975
    R5        2.05940  -0.00529  -0.01223  -0.00811  -0.02034   2.03906
    R6        2.62384   0.01596   0.04070  -0.00761   0.03314   2.65698
    R7        2.06038  -0.00638  -0.01241  -0.01283  -0.02524   2.03514
    R8        2.60033   0.01340   0.03467  -0.00766   0.02708   2.62740
    R9        2.69646   0.04220   0.07841   0.01886   0.09756   2.79402
   R10        2.60345   0.01615   0.03499  -0.00234   0.03262   2.63606
   R11        2.06771  -0.00470  -0.01003  -0.00841  -0.01844   2.04927
   R12        2.60297   0.01646   0.03435  -0.00197   0.03228   2.63525
   R13        2.06807  -0.00570  -0.01052  -0.01235  -0.02287   2.04520
   R14        2.60297   0.01646   0.03435  -0.00197   0.03228   2.63525
   R15        2.06843  -0.00521  -0.01040  -0.01029  -0.02069   2.04775
   R16        2.60345   0.01615   0.03499  -0.00234   0.03262   2.63606
   R17        2.06807  -0.00570  -0.01052  -0.01235  -0.02287   2.04520
   R18        2.60033   0.01340   0.03467  -0.00766   0.02708   2.62740
   R19        2.06771  -0.00470  -0.01003  -0.00841  -0.01844   2.04927
    A1        1.88980  -0.00010  -0.00446   0.00197  -0.00253   1.88727
    A2        2.19290   0.00191   0.00838   0.00826   0.01666   2.20956
    A3        2.20049  -0.00180  -0.00392  -0.01023  -0.01413   2.18636
    A4        1.90073   0.00525   0.01432   0.00374   0.01785   1.91859
    A5        2.19123  -0.00262  -0.00716  -0.00187  -0.00893   2.18230
    A6        2.19123  -0.00262  -0.00716  -0.00187  -0.00893   2.18230
    A7        1.88980  -0.00010  -0.00446   0.00197  -0.00253   1.88727
    A8        2.19290   0.00191   0.00838   0.00826   0.01666   2.20956
    A9        2.20049  -0.00180  -0.00392  -0.01023  -0.01413   2.18636
   A10        2.17143   0.00568   0.01086   0.00952   0.02012   2.19155
   A11        1.87223  -0.00252  -0.00270  -0.00384  -0.00640   1.86583
   A12        2.23953  -0.00316  -0.00816  -0.00567  -0.01372   2.22581
   A13        2.23829   0.00189   0.00691   0.00743   0.01443   2.25272
   A14        2.02322  -0.00177  -0.00636  -0.00759  -0.01399   2.00923
   A15        2.02168  -0.00012  -0.00055   0.00016  -0.00044   2.02124
   A16        2.24511   0.00027  -0.00090  -0.00165  -0.00265   2.24245
   A17        2.01984  -0.00002   0.00131   0.00078   0.00214   2.02199
   A18        2.01823  -0.00025  -0.00042   0.00087   0.00051   2.01874
   A19        2.26211   0.00199   0.00429  -0.00022   0.00388   2.26599
   A20        2.01054  -0.00100  -0.00214   0.00011  -0.00194   2.00860
   A21        2.01054  -0.00100  -0.00214   0.00011  -0.00194   2.00860
   A22        2.24511   0.00027  -0.00090  -0.00165  -0.00265   2.24245
   A23        2.01823  -0.00025  -0.00042   0.00087   0.00051   2.01874
   A24        2.01984  -0.00002   0.00131   0.00078   0.00214   2.02199
   A25        2.23829   0.00189   0.00691   0.00743   0.01443   2.25272
   A26        2.02168  -0.00012  -0.00055   0.00016  -0.00044   2.02124
   A27        2.02322  -0.00177  -0.00636  -0.00759  -0.01399   2.00923
   A28        1.87223  -0.00252  -0.00270  -0.00384  -0.00640   1.86583
   A29        2.17143   0.00568   0.01086   0.00952   0.02012   2.19155
   A30        2.23953  -0.00316  -0.00816  -0.00567  -0.01372   2.22581
    D1       -0.00000   0.00000   0.00000   0.00000   0.00000   0.00000
    D2        3.14159   0.00000   0.00000   0.00000   0.00000   3.14159
    D3        3.14159  -0.00000   0.00000  -0.00000   0.00000   3.14159
    D4        0.00000  -0.00000   0.00000  -0.00000   0.00000   0.00000
    D5        0.00000  -0.00000   0.00000  -0.00000   0.00000   0.00000
    D6        3.14159   0.00000   0.00000   0.00000   0.00000   3.14159
    D7        3.14159   0.00000   0.00000   0.00000   0.00000   3.14159
    D8       -0.00000   0.00000   0.00000   0.00000   0.00000   0.00000
    D9        0.00000  -0.00000   0.00000  -0.00000   0.00000   0.00000
   D10        3.14159   0.00000   0.00000   0.00000   0.00000   3.14159
   D11        3.14159  -0.00000   0.00000  -0.00000   0.00000   3.14159
   D12       -0.00000   0.00000   0.00000   0.00000   0.00000   0.00000
   D13        3.14159  -0.00000   0.00000  -0.00000   0.00000   3.14159
   D14       -0.00000   0.00000   0.00000   0.00000   0.00000   0.00000
   D15        0.00000  -0.00000   0.00000  -0.00000   0.00000   0.00000
   D16        3.14159  -0.00000   0.00000  -0.00000   0.00000   3.14159
   D17        3.14159  -0.00000   0.00000  -0.00000   0.00000   3.14159
   D18        0.00000  -0.00000   0.00000  -0.00000   0.00000   0.00000
   D19       -0.00000  -0.00000   0.00000  -0.00000   0.00000   0.00000
   D20        3.14159  -0.00000   0.00000  -0.00000   0.00000   3.14159
   D21       -0.00000   0.00000   0.00000  -0.00000   0.00000   0.00000
   D22        3.14159  -0.00000   0.00000  -0.00000   0.00000   3.14159
   D23        3.14159   0.00000   0.00000   0.00000   0.00000   3.14159
   D24        0.00000  -0.00000   0.00000  -0.00000   0.00000   0.00000
   D25       -0.00000   0.00000   0.00000   0.00000   0.00000   0.00000
   D26        3.14159  -0.00000   0.00000  -0.00000   0.00000   3.14159
   D27        3.14159   0.00000   0.00000   0.00000   0.00000   3.14159
   D28       -0.00000   0.00000   0.00000   0.00000   0.00000   0.00000
   D29        0.00000   0.00000   0.00000   0.00000   0.00000   0.00000
   D30        3.14159  -0.00000   0.00000  -0.00000   0.00000   3.14159
   D31        3.14159   0.00000   0.00000   0.00000   0.00000   3.14159
   D32       -0.00000   0.00000   0.00000   0.00000   0.00000   0.00000
   D33       -0.00000  -0.00000   0.00000  -0.00000   0.00000   0.00000
   D34        3.14159  -0.00000   0.00000  -0.00000   0.00000   3.14159
   D35        3.14159   0.00000   0.00000   0.00000   0.00000   3.14159
   D36        0.00000  -0.00000   0.00000  -0.00000   0.00000   0.00000
   D37       -0.00000  -0.00000   0.00000  -0.00000   0.00000   0.00000
   D38        3.14159  -0.00000   0.00000  -0.00000   0.00000   3.14159
   D39        3.14159   0.00000   0.00000   0.00000   0.00000   3.14159
   D40        0.00000  -0.00000   0.00000  -0.00000   0.00000   0.00000
   D41        3.14159   0.00000   0.00000   0.00000   0.00000   3.14159
   D42        0.00000   0.00000   0.00000   0.00000   0.00000   0.00000
   D43       -0.00000   0.00000   0.00000   0.00000   0.00000   0.00000
   D44        3.14159   0.00000   0.00000   0.00000   0.00000   3.14159
         Item               Value     Threshold  Converged?
 Maximum Force            0.042201     0.000450     NO 
 RMS     Force            0.007229     0.000300     NO 
 Maximum Displacement     0.074809     0.001800     NO 
 RMS     Displacement     0.022608     0.001200     NO 
 Predicted change in Energy=-4.295634D-03
 GradGradGradGradGradGradGradGradGradGradGradGradGradGradGradGradGradGrad

                          Input orientation:                          
 ---------------------------------------------------------------------
 Center     Atomic      Atomic             Coordinates (Angstroms)
 Number     Number       Type             X           Y           Z
 ---------------------------------------------------------------------
      1          6           0       -0.120768    0.000000    0.002008
      2          6           0       -0.088079    0.000000    1.403814
      3          6           0        1.240938    0.000000    1.850849
      4          6           0        2.081673    0.000000    0.723888
      5          6           0        3.471752    0.000000    0.751971
      6          6           0        4.372666    0.000000   -0.313030
      7          6           0        4.099700    0.000000   -1.680566
      8          6           0        2.874683    0.000000   -2.346898
      9          6           0        1.590378    0.000000   -1.802443
     10          6           0        1.204858    0.000000   -0.466598
     11          1           0        0.774664    0.000000   -2.517003
     12          1           0        2.929023    0.000000   -3.427806
     13          1           0        4.972209    0.000000   -2.323186
     14          1           0        5.421043    0.000000   -0.044295
     15          1           0        3.912187    0.000000    1.742930
     16          1           0        1.573864    0.000000    2.875046
     17          1           0       -0.956888    0.000000    2.043708
     18          1           0       -1.000114    0.000000   -0.619742
 ---------------------------------------------------------------------
                    Distance matrix (angstroms):
                    1          2          3          4          5
     1  C    0.000000
     2  C    1.402187   0.000000
     3  C    2.296183   1.402187   0.000000
     4  C    2.317727   2.273791   1.406014   0.000000
     5  C    3.669966   3.619019   2.486778   1.390363   0.000000
     6  C    4.504464   4.779728   3.806585   2.514726   1.394945
     7  C    4.543501   5.201047   4.543501   3.139081   2.512280
     8  C    3.806585   4.779728   4.504464   3.171528   3.155864
     9  C    2.486778   3.619019   3.669966   2.573659   3.172476
    10  C    1.406014   2.273791   2.317727   1.478534   2.573659
    11  H    2.673428   4.014614   4.392668   3.494516   4.237980
    12  H    4.589646   5.696266   5.542005   4.237282   4.214865
    13  H    5.598656   6.284667   5.598656   4.199983   3.421689
    14  H    5.542005   5.696266   4.589646   3.426587   2.105653
    15  H    4.392668   4.014614   2.673428   2.095048   1.084428
    16  H    3.335585   2.219591   1.076950   2.210283   2.847706
    17  H    2.206271   1.079024   2.206271   3.312820   4.613181
    18  H    1.076950   2.219591   3.335585   3.361957   4.677519
                    6          7          8          9         10
     6  C    0.000000
     7  C    1.394512   0.000000
     8  C    2.525978   1.394512   0.000000
     9  C    3.155864   2.512280   1.394945   0.000000
    10  C    3.171528   3.139081   2.514726   1.390363   0.000000
    11  H    4.219373   3.428627   2.106897   1.084428   2.095048
    12  H    3.433064   2.103172   1.082273   2.105653   3.426587
    13  H    2.097660   1.083621   2.097660   3.421689   4.199983
    14  H    1.082273   2.103172   3.433064   4.214865   4.237282
    15  H    2.106897   3.428627   4.219373   4.237980   3.494516
    16  H    4.242301   5.208977   5.381527   4.677519   3.361957
    17  H    5.827379   6.280070   5.827379   4.613181   3.312820
    18  H    5.381527   5.208977   4.242301   2.847706   2.210283
                   11         12         13         14         15
    11  H    0.000000
    12  H    2.338979   0.000000
    13  H    4.202017   2.322670   0.000000
    14  H    5.263375   4.202180   2.322670   0.000000
    15  H    5.290659   5.263375   4.202017   2.338979   0.000000
    16  H    5.450955   6.446890   6.210504   4.829424   2.597968
    17  H    4.878355   6.711017   7.363691   6.711017   4.878355
    18  H    2.597968   4.829424   6.210504   6.446890   5.450955
                   16         17         18
    16  H    0.000000
    17  H    2.663800   0.000000
    18  H    4.340381   2.663800   0.000000
 Stoichiometry    C10H8
 Framework group  C2V[C2(HCCH),SGV(C8H6)]
 Deg. of freedom    17
 Full point group                 C2V     NOp   4
 Largest Abelian subgroup         C2V     NOp   4
 Largest concise Abelian subgroup C2      NOp   2
                         Standard orientation:                         
 ---------------------------------------------------------------------
 Center     Atomic      Atomic             Coordinates (Angstroms)
 Number     Number       Type             X           Y           Z
 ---------------------------------------------------------------------
      1          6           0       -0.000000   -1.148091    1.897767
      2          6           0       -0.000000   -0.000000    2.702760
      3          6           0        0.000000    1.148091    1.897767
      4          6           0        0.000000    0.739267    0.552502
      5          6           0        0.000000    1.586238   -0.550108
      6          6           0        0.000000    1.262989   -1.907083
      7          6           0        0.000000    0.000000   -2.498286
      8          6           0       -0.000000   -1.262989   -1.907083
      9          6           0       -0.000000   -1.586238   -0.550108
     10          6           0       -0.000000   -0.739267    0.552502
     11          1           0       -0.000000   -2.645330   -0.317067
     12          1           0       -0.000000   -2.101090   -2.591847
     13          1           0        0.000000    0.000000   -3.581907
     14          1           0        0.000000    2.101090   -2.591847
     15          1           0        0.000000    2.645330   -0.317067
     16          1           0        0.000000    2.170190    2.237082
     17          1           0       -0.000000   -0.000000    3.781784
[...]
 ! D33   D(6,7,8,9)              0.0            -DE/DX =    0.0                 !
 ! D34   D(6,7,8,12)           180.0            -DE/DX =    0.0                 !
 ! D35   D(13,7,8,9)           180.0            -DE/DX =    0.0                 !
 ! D36   D(13,7,8,12)            0.0            -DE/DX =    0.0                 !
 ! D37   D(7,8,9,10)             0.0            -DE/DX =    0.0                 !
 ! D38   D(7,8,9,11)           180.0            -DE/DX =    0.0                 !
 ! D39   D(12,8,9,10)          180.0            -DE/DX =    0.0                 !
 ! D40   D(12,8,9,11)            0.0            -DE/DX =    0.0                 !
 ! D41   D(8,9,10,1)           180.0            -DE/DX =    0.0                 !
 ! D42   D(8,9,10,4)             0.0            -DE/DX =    0.0                 !
 ! D43   D(11,9,10,1)            0.0            -DE/DX =    0.0                 !
 ! D44   D(11,9,10,4)          180.0            -DE/DX =    0.0                 !
 --------------------------------------------------------------------------------
 GradGradGradGradGradGradGradGradGradGradGradGradGradGradGradGradGradGrad


 ----------------------------------------------------------------------

 Electric dipole moment (input orientation):
 (Debye = 10**-18 statcoulomb cm , SI units = C m)
                  (au)            (Debye)         (10**-30 SI)
   Tot        0.407603D+00      0.103602D+01      0.345580D+01
   x          0.328194D+00      0.834186D+00      0.278254D+01
   y          0.000000D+00      0.000000D+00      0.000000D+00
   z         -0.241721D+00     -0.614394D+00     -0.204940D+01

 Dipole polarizability, Alpha (input orientation).
 (esu units = cm**3 , SI units = C**2 m**2 J**-1)
 Alpha(0;0):
               (au)            (10**-24 esu)      (10**-40 SI)
   iso        0.129254D+03      0.191535D+02      0.213111D+02
   aniso      0.111476D+03      0.165191D+02      0.183799D+02
   xx         0.170978D+03      0.253363D+02      0.281904D+02
   yx         0.000000D+00      0.000000D+00      0.000000D+00
   yy         0.649385D+02      0.962290D+01      0.107069D+02
   zx        -0.307969D+02     -0.456363D+01     -0.507772D+01
   zy         0.000000D+00      0.000000D+00      0.000000D+00
   zz         0.151846D+03      0.225012D+02      0.250360D+02

 ----------------------------------------------------------------------

 Dipole orientation:
     6         -0.12991412         -0.00000001         -0.18354993
     6          2.03729289         -0.00000001         -1.70393117
     6          4.20449990         -0.00000002         -0.18354993
     6          3.45057390         -0.00000002          2.35808875
     6          5.04334623         -0.00000002          4.44019736
     6          4.42293244         -0.00000002          7.00002045
     6          2.03729289         -0.00000001          8.11525664
     6         -0.34834665         -0.00000001          7.00002045
     6         -0.96876044         -0.00000001          4.44019736
     6          0.62401189         -0.00000001          2.35808875
     1         -2.97817063         -0.00000000          4.01010444
     1         -1.93458687         -0.00000000          8.29917859
     1          2.03729289         -0.00000001         10.16803328
     1          6.00917266         -0.00000002          8.29917859
     1          7.05275642         -0.00000003          4.01010444
     1          6.13942260         -0.00000002         -0.83655462
     1          2.03729289         -0.00000001         -3.74857177
     1         -2.06483682         -0.00000000         -0.83655462

 Electric dipole moment (dipole orientation):
 (Debye = 10**-18 statcoulomb cm , SI units = C m)
                  (au)            (Debye)         (10**-30 SI)
   Tot        0.407603D+00      0.103602D+01      0.345580D+01
   x          0.000000D+00      0.000000D+00      0.000000D+00
   y          0.000000D+00      0.000000D+00      0.000000D+00
   z          0.407603D+00      0.103602D+01      0.345580D+01

 Dipole polarizability, Alpha (dipole orientation).
 (esu units = cm**3 , SI units = C**2 m**2 J**-1)
 Alpha(0;0):
               (au)            (10**-24 esu)      (10**-40 SI)
   iso        0.129254D+03      0.191535D+02      0.213111D+02
   aniso      0.111476D+03      0.165191D+02      0.183799D+02
   xx         0.129163D+03      0.191400D+02      0.212962D+02
   yx         0.000000D+00      0.000000D+00      0.000000D+00
   yy         0.649385D+02      0.962290D+01      0.107069D+02
   zx         0.000000D+00      0.000000D+00      0.000000D+00
   zy         0.000000D+00      0.000000D+00      0.000000D+00
   zz         0.193660D+03      0.286975D+02      0.319302D+02

 ----------------------------------------------------------------------
 1\1\GINC-PAULING\Freq\RB3LYP\6-311+G(2d,p)\C10H8\CHEM\16-Jun-2021\0\\#
 N Geom=AllCheck Guess=TCheck SCRF=Check GenChk RB3LYP/6-311+G(2d,p) Fr
 eq\\C10H8\\0,1\C,-0.1189769028,0.0000000044,0.0022471234\C,-0.08667635
 46,0.0000000051,1.4027803266\C,1.2412411432,0.0000000085,1.8490668913\
 C,2.0875942555,0.00000001,0.7302194006\C,3.4745861264,0.0000000134,0.7
 554688857\C,4.3705858689,0.0000000151,-0.3121979281\C,4.0971118283,0.0
 000000139,-1.678659609\C,2.8732716083,0.0000000106,-2.3451584402\C,1.5
 878775771,0.0000000078,-1.8061870603\C,1.2005676281,0.0000000074,-0.47
 41303837\H,0.7740328233,0.0000000055,-2.5273914267\H,2.9290296351,0.00
 00000103,-3.428727783\H,4.9717648858,0.0000000157,-2.3228582977\H,5.42
 19260266,0.0000000178,-0.0440275513\H,3.9219203895,0.0000000149,1.7466
 152313\H,1.570220976,0.0000000097,2.878429163\H,-0.957862786,0.0000000
 032,2.0444257789\H,-1.0044250243,0.000000002,-0.6172656214\\Version=EM
 64L-G16RevA.03\State=1-A1\HF=-385.9455924\RMSD=2.575e-09\RMSF=1.411e-0
 4\ZeroPoint=0.1452367\Thermal=0.1523926\Dipole=0.328194,0.,-0.2417212\
 DipoleDeriv=-0.2336573,0.,0.2603147,0.,-0.2176046,0.,0.1337149,0.,-0.1
 239622,0.1650249,0.,-0.0154963,0.,-0.1347801,0.,-0.0154963,0.,0.155398
 2,-0.2452346,0.,0.1301189,0.,-0.2176046,0.,0.2567187,0.,-0.1123849,-0.
 4847521,0.,0.1291502,0.,0.0019251,0.,-0.5620886,0.,0.3117423,0.3298823
 ,0.,-0.2597445,0.,-0.0537672,0.,-0.0767541,0.,0.390888,-0.0169669,0.,0
 .16595,0.,-0.1581964,0.,0.0932935,0.,-0.3954748,0.1974261,0.,0.0639652
 ,0.,-0.0829751,0.,0.0639651,0.,0.2371624,-0.4356085,0.,-0.0367405,0.,-
 0.1581964,0.,0.035916,0.,0.0231668,0.4808432,0.,-0.0298642,0.,-0.05376
 72,0.,-0.2128546,0.,0.2399271,0.3643018,0.,-0.2983644,0.,0.0019251,0.,
 0.3928744,0.,-0.5373117,-0.0270229,0.,-0.0923566,0.,0.1086211,0.,-0.06
 49003,0.,-0.011608,0.0470024,0.,0.0058306,0.,0.1331326,0.,0.0134117,0.
 ,-0.1140646,-0.0544343,0.,0.0843312,0.,0.1167168,0.,0.0843312,0.,-0.00
 20462,-0.1053434,0.,-0.0339083,0.,0.1331326,0.,-0.0414895,0.,0.0382811
 ,0.0315833,0.,-0.0466966,0.,0.1086211,0.,-0.074153,0.,-0.0702142,0.048
 8112,0.,-0.0728043,0.,0.1647049,0.,-0.0235611,0.,-0.0639182,-0.0351542
 ,0.,0.093331,0.,0.1434072,0.,0.093331,0.,0.0228248,-0.0267009,0.,-0.04
 70159,0.,0.1647049,0.,-0.096259,0.,0.0115939\Polar=170.9775008,0.00000
 02,64.9385476,-30.7968859,0.,151.8458925\Quadrupole=2.9942015,-6.19113
 06,3.1969291,0.,0.3263384,0.\PG=C02V [C2(H1C1C1H1),SGV(C8H6)]\NImag=0\
 \0.70774237,0.,0.11404935,0.12627673,0.,0.63682075,-0.12642263,0.,0.02
 717940,0.70767157,0.,-0.05789039,0.,0.,0.13093553,-0.03448113,0.,-0.29
 981547,-0.12495276,0.,0.63004855,0.01524361,0.,-0.08423290,-0.28249034
 ,0.,-0.02129671,0.57151795,0.,0.01230401,0.,0.,-0.05789039,0.,0.,0.114
 04935,-0.04236112,0.,-0.02407769,-0.08295723,0.,-0.14374776,0.08396414
 ,0.,0.77304517,-0.07678358,0.,0.01426217,-0.09089490,0.,-0.02636591,-0
 .11777725,0.,0.08467309,0.76103041,0.,0.01077008,0.,0.,0.00603163,0.,0
 .,-0.06637340,0.,0.,0.14438231,-0.00400398,0.,-0.02087473,0.04019852,0
 .,0.03574539,0.07661816,0.,-0.24262422,-0.02674124,0.,0.52369742,0.030
 96434,0.,-0.03236589,0.03430596,0.,0.04537576,-0.08542581,0.,0.0310437
 3,-0.32560270,0.,-0.04170265,0.68018110,0.,0.00015694,0.,0.,0.00472792
 ,0.,0.,0.00441049,0.,0.,-0.05576827,0.,0.,0.13847711,-0.01891017,0.,0.
 01022260,-0.01152797,0.,-0.02645887,0.05567832,0.,-0.00589891,-0.04374
 050,0.,-0.10078782,-0.00501313,0.,0.66373420,-0.00847736,0.,0.00776598
 ,-0.00831144,0.,-0.01153984,0.01487049,0.,-0.00976866,-0.04156969,0.,0
 .04368364,-0.20031940,0.,0.12723252,0.66749713,0.,0.00094902,0.,0.,0.0
 0039481,0.,0.,0.00756295,0.,0.,0.00479334,0.,0.,-0.05731814,0.,0.,0.12
 139682,0.03208023,0.,-0.03493222,0.03219648,0.,0.04188489,-0.05311767,
 0.,0.02595403,0.06425880,0.,-0.01768507,0.04348128,0.,-0.23051585,0.00
 057115,0.,0.66300833,-0.02144417,0.,0.02488139,-0.01905303,0.,-0.02494
 472,0.02577862,0.,-0.01384988,-0.02426806,0.,0.01203542,0.04954827,0.,
 0.00186636,-0.13440955,0.,0.00855535,0.66466008,0.,-0.00008107,0.,0.,-
 0.00089010,0.,0.,-0.00008107,0.,0.,-0.00246402,0.,0.,0.00326142,0.,0.,
 -0.05804763,0.,0.,0.13546996,-0.02851773,0.,0.02920511,-0.02494472,0.,
 -0.03454916,0.03954924,0.,-0.01801768,-0.03895811,0.,0.02282464,0.0598
 5172,0.,-0.05785894,-0.07704935,0.,-0.29366768,0.00419613,0.,0.6672667
 9,0.04279319,0.,-0.04444461,0.03161656,0.,0.04459849,-0.04389208,0.,0.
 02108009,0.03449105,0.,-0.02181459,-0.05649270,0.,0.02875061,0.0151811
 8,0.,-0.09064217,-0.26025176,0.,-0.03053244,0.66307971,0.,0.00756295,0
 .,0.,0.00039481,0.,0.,0.00094902,0.,0.,-0.00484096,0.,0.,-0.00200207,0
 .,0.,0.00554286,0.,0.,-0.05804763,0.,0.,0.12139682,-0.00109561,0.,-0.0
 0196867,0.00086218,0.,0.00195689,-0.00323417,0.,0.00048250,0.00095851,
 0.,-0.00473535,-0.00626025,0.,0.00336858,-0.02904414,0.,-0.02199452,-0
 .11613714,0.,-0.16782547,-0.00080094,0.,0.66742575,-0.03746297,0.,0.07
 057603,-0.03070059,0.,-0.03171961,0.02657309,0.,-0.02027413,-0.0041672
 7,0.,-0.00083366,0.03324723,0.,-0.01508395,-0.00826961,0.,0.04372916,-
 0.06589171,0.,-0.03399038,-0.27621855,0.,0.10365752,0.66802158,0.,0.00
 441049,0.,0.,0.00472792,0.,0.,0.00015694,0.,0.,-0.00069592,0.,0.,-0.00
 150377,0.,0.,-0.00200207,0.,0.,0.00326142,0.,0.,-0.05731814,0.,0.,0.13
 847711,0.04594144,0.,-0.05386175,0.02518411,0.,0.03854768,-0.03372986,
 0.,0.01461385,0.02757709,0.,-0.03457311,-0.03546599,0.,0.01754594,0.00
 871830,0.,-0.04485451,0.02399497,0.,0.05758105,0.01990628,0.,-0.154616
 70,-0.00878999,0.,0.67589372,-0.27732949,0.,0.02705972,0.02068392,0.,0
 .07485596,-0.02870003,0.,0.01093122,-0.10302546,0.,-0.06831375,-0.0394
 7359,0.,-0.01180014,0.00462425,0.,-0.03109150,0.02630763,0.,0.02774470
 ,-0.05036451,0.,0.04095189,-0.09636483,0.,0.02950080,0.55973063,0.,-0.
 06637340,0.,0.,0.00603163,0.,0.,0.01077008,0.,0.,-0.06935189,0.,0.,-0.
 00069592,0.,0.,-0.00484096,0.,0.,-0.00246402,0.,0.,0.00479334,0.,0.,-0
 .05576827,0.,0.,0.14438231,0.03511466,0.,-0.08307198,0.00829153,0.,-0.
 07583342,0.02919738,0.,-0.06895827,-0.04816817,0.,-0.13920584,0.016610
 62,0.,0.00073320,-0.00831840,0.,0.02513145,-0.02324882,0.,-0.02775105,
 0.06152705,0.,-0.00889025,0.02746295,0.,-0.33002569,-0.08926686,0.,0.7
 2499720,0.00061391,0.,0.00203899,-0.00027788,0.,-0.00076047,0.00062537
 ,0.,0.00005960,-0.00010349,0.,0.00200659,0.00036290,0.,-0.00013834,0.0
 0015987,0.,0.00083843,-0.00344415,0.,0.00355236,-0.02125873,0.,-0.0210
 6977,-0.20637280,0.,-0.13049650,0.00856669,0.,0.00463303,0.22141822,0.
 ,-0.00489150,0.,0.,0.00045537,0.,0.,-0.00127350,0.,0.,0.00802034,0.,0.
 ,0.00018482,0.,0.,0.00019410,0.,0.,0.00639319,0.,0.,0.00581383,0.,0.,-
 0.04228803,0.,0.,0.00692486,0.,0.,0.02596228,-0.00039239,0.,0.00129838
 ,0.00037738,0.,0.00044332,-0.00167769,0.,-0.00097374,0.00417809,0.,-0.
 00235302,-0.00018925,0.,-0.00010727,0.00040015,0.,-0.00043552,0.002134
 23,0.,0.00032995,0.01130503,0.,0.00939752,-0.13240734,0.,-0.17540670,-
 0.02603054,0.,-0.02180794,0.14023825,0.,0.18869574,0.00109902,0.,0.000
 20737,0.00015910,0.,0.00094756,-0.00070568,0.,0.00045283,0.00067530,0.
 ,-0.00048151,-0.00129153,0.,0.00066138,-0.00371730,0.,-0.00177092,0.00
 134324,0.,-0.03086456,-0.05817973,0.,0.01395683,-0.00181027,0.,0.03225
 297,-0.00545536,0.,0.00057340,0.00078828,0.,0.00038087,0.06661791,0.,-
 0.00005078,0.,0.,-0.00044952,0.,0.,0.00013283,0.,0.,0.00032733,0.,0.,-
 0.00013565,0.,0.,0.00662338,0.,0.,0.00284088,0.,0.,-0.03500798,0.,0.,0
 .00278645,0.,0.,0.00694702,0.,0.,-0.00385241,0.,0.,0.02470573,-0.00019
 011,0.,-0.00065717,0.00037955,0.,-0.00006555,-0.00000113,0.,0.00002179
 ,0.00003101,0.,0.00045125,0.00011320,0.,0.00023085,-0.00298708,0.,0.00
 154341,0.00148351,0.,-0.01488692,0.01417703,0.,-0.32816319,-0.00026368
 ,0.,-0.01151421,0.00213813,0.,0.00153134,0.00015861,0.,0.00126714,-0.0
 1477910,0.,0.34993164,-0.00045306,0.,0.00054803,-0.00038972,0.,-0.0005
 3899,0.00068219,0.,-0.00016156,-0.00057782,0.,0.00004450,0.00196828,0.
 ,-0.00152216,0.00587198,0.,-0.00484330,-0.23218713,0.,0.12799737,-0.02
 256832,0.,0.01804486,-0.00298931,0.,-0.00381145,0.00068686,0.,-0.00067
 958,-0.00123823,0.,0.00045373,0.00081023,0.,-0.00021441,0.24895636,0.,
 -0.00073778,0.,0.,-0.00008775,0.,0.,-0.00073778,0.,0.,0.00024914,0.,0.
 ,0.00684498,0.,0.,0.00537118,0.,0.,-0.03959791,0.,0.,0.00537118,0.,0.,
 0.00684498,0.,0.,0.00024914,0.,0.,-0.00061539,0.,0.,-0.00424781,0.,0.,
 0.02561043,-0.00051418,0.,0.00080223,-0.00053899,0.,-0.00072455,0.0009
 0065,0.,-0.00033302,-0.00107241,0.,0.00048960,-0.00227157,0.,-0.004645
 98,0.02687868,0.,-0.01846779,0.12799737,0.,-0.15267273,-0.01367712,0.,
 0.00997251,-0.00306204,0.,0.00031161,0.00043732,0.,-0.00077508,-0.0005
 5645,0.,0.00005849,-0.00053215,0.,0.00126101,-0.13483104,0.,0.16519676
 ,-0.00017018,0.,0.00016521,-0.00042172,0.,0.00019914,-0.00050754,0.,-0
 .00068912,0.00014847,0.,0.00387873,-0.01972227,0.,-0.00582732,-0.31237
 731,0.,-0.06477914,-0.00513580,0.,-0.00052894,0.00242837,0.,-0.0010781
 8,-0.00012252,0.,0.00047630,0.00059858,0.,0.00000718,-0.00003401,0.,-0
 .00004970,-0.00040340,0.,-0.00010269,0.00143283,0.,-0.00002103,0.33337
 632,0.,0.00013283,0.,0.,-0.00044952,0.,0.,-0.00005078,0.,0.,0.00694702
 ,0.,0.,0.00278645,0.,0.,-0.03500798,0.,0.,0.00284088,0.,0.,0.00662338,
 0.,0.,-0.00013565,0.,0.,0.00032733,0.,0.,-0.00060443,0.,0.,0.00021169,
 0.,0.,-0.00424781,0.,0.,0.02470573,0.00061916,0.,-0.00051371,0.0007671
 5,0.,0.00051528,-0.00029164,0.,0.00094938,0.00231401,0.,-0.00407248,0.
 02668933,0.,0.00639779,-0.06499934,0.,-0.07396562,-0.03287702,0.,-0.00
 840788,0.00013798,0.,-0.00460226,0.00102449,0.,-0.00093815,-0.00050534
 ,0.,0.00052797,-0.00011469,0.,0.00009012,-0.00109478,0.,-0.00077535,-0
 .00033876,0.,0.00063841,0.06807858,0.,0.08317323,-0.00037467,0.,-0.001
 98831,0.00048838,0.,0.00061539,0.00077170,0.,-0.00034338,-0.01307383,0
 .,-0.03275229,-0.10365620,0.,-0.10050259,0.00946625,0.,0.02084850,-0.0
 0161302,0.,0.00270299,-0.00073400,0.,0.00012251,0.00002690,0.,-0.00029
 362,-0.00390707,0.,0.00299666,0.00003984,0.,-0.00020337,0.00012577,0.,
 -0.00000007,-0.00002651,0.,0.00083011,0.00107218,0.,0.00046905,0.11212
 181,0.,-0.00127350,0.,0.,0.00045537,0.,0.,-0.00489150,0.,0.,0.00692486
 ,0.,0.,-0.04228803,0.,0.,0.00581383,0.,0.,0.00639319,0.,0.,0.00019410,
 0.,0.,0.00018482,0.,0.,0.00802034,0.,0.,-0.00050791,0.,0.,-0.00060443,
 0.,0.,-0.00061539,0.,0.,-0.00385241,0.,0.,0.02596228,-0.00025102,0.,0.
 00002629,-0.00052246,0.,-0.00032295,0.00208801,0.,0.00114058,-0.002088
 72,0.,-0.00016741,-0.09859175,0.,-0.27812331,-0.01152630,0.,-0.0213274
 6,0.00412112,0.,-0.00150118,0.00056078,0.,0.00045835,-0.00024270,0.,0.
 00022873,0.00082516,0.,0.00145057,-0.00004845,0.,-0.00003837,-0.000065
 06,0.,-0.00006966,-0.00018008,0.,-0.00115323,0.00024680,0.,0.00098324,
 0.10628975,0.,0.29799215,-0.00510667,0.,-0.00171002,0.00099291,0.,-0.0
 2639048,-0.08580415,0.,-0.08209316,0.01073548,0.,0.01729511,0.00117531
 ,0.,0.00041220,0.00017188,0.,-0.00085590,0.00043386,0.,0.00042715,-0.0
 0054766,0.,-0.00013756,0.00148938,0.,-0.00004009,-0.00359990,0.,0.0034
 3940,-0.00001240,0.,0.00039127,-0.00002271,0.,-0.00000206,0.00000775,0
 .,-0.00001705,-0.00002406,0.,-0.00001688,-0.00026031,0.,-0.00058136,0.
 07928412,0.,0.00385620,0.,0.,0.00015523,0.,0.,-0.02567290,0.,0.,0.0006
 0103,0.,0.,-0.00306429,0.,0.,-0.00017111,0.,0.,0.00050155,0.,0.,0.0000
 4964,0.,0.,0.00154679,0.,0.,0.00393408,0.,0.,-0.00067556,0.,0.,-0.0001
 7483,0.,0.,0.00004342,0.,0.,-0.00000472,0.,0.,0.00029121,0.,0.,0.02013
 202,-0.00054874,0.,0.00030971,0.00179778,0.,-0.00137112,-0.08191441,0.
 ,-0.31754183,-0.01096013,0.,-0.01370207,-0.00124549,0.,0.00071056,0.00
 021118,0.,0.00014485,0.00004570,0.,0.00001197,-0.00006989,0.,0.0002294
 2,-0.00113697,0.,-0.00065935,0.00275511,0.,-0.00216571,0.00015065,0.,-
 0.00036148,0.00003835,0.,-0.00003025,0.00002738,0.,0.00003216,0.000075
 78,0.,-0.00003947,0.00090980,0.,0.00030963,0.09031576,0.,0.33401926,0.
 00625984,0.,-0.00308932,-0.24275963,0.,0.13310631,-0.01123312,0.,0.019
 10919,-0.00518999,0.,-0.00173333,0.00036766,0.,0.00110696,-0.00061117,
 0.,0.00037274,-0.00028847,0.,-0.00052001,0.00058813,0.,0.00004322,0.00
 002477,0.,0.00037905,0.00036806,0.,-0.00173182,0.00000016,0.,0.0000489
 2,0.00002192,0.,-0.00000693,-0.00001348,0.,0.00001651,-0.00009809,0.,0
 .00010567,0.00001704,0.,-0.00003778,0.00070568,0.,-0.00056681,0.251780
 32,0.,0.00277944,0.,0.,-0.03680776,0.,0.,0.00277944,0.,0.,0.00651330,0
 .,0.,0.00037922,0.,0.,-0.00130405,0.,0.,0.00020939,0.,0.,-0.00130405,0
 .,0.,0.00037922,0.,0.,0.00651329,0.,0.,0.00046873,0.,0.,-0.00004718,0.
 ,0.,0.00025975,0.,0.,-0.00004718,0.,0.,0.00046873,0.,0.,-0.00252051,0.
 ,0.,0.02380073,0.02454267,0.,-0.00625720,0.13310631,0.,-0.16007147,-0.
 00852279,0.,0.01123576,-0.00345820,0.,-0.00070825,0.00048555,0.,0.0004
 8633,-0.00032930,0.,0.00071733,-0.00052001,0.,-0.00061151,0.00074525,0
 .,-0.00048197,0.00100045,0.,0.00082922,-0.00000695,0.,-0.00626630,-0.0
 0004302,0.,0.00002050,0.00014295,0.,-0.00006742,0.00001651,0.,-0.00000
 323,-0.00004421,0.,0.00005259,0.00005416,0.,0.00000362,0.00095624,0.,0
 .00011908,-0.14735837,0.,0.16023852,-0.25069149,0.,-0.13312997,0.00580
 349,0.,0.00329199,0.00047298,0.,0.00118435,-0.00404668,0.,0.00261634,-
 0.00013685,0.,-0.00164209,0.00021981,0.,0.00016849,-0.00008486,0.,-0.0
 0011542,0.00032986,0.,0.00026025,0.00098751,0.,-0.00130382,-0.01334640
 ,0.,-0.01844019,0.00016644,0.,0.00104236,-0.00005480,0.,0.00006623,0.0
 0002708,0.,0.00003339,-0.00003987,0.,0.00003302,-0.00048428,0.,0.00000
 408,0.00038149,0.,0.00011494,0.00006038,0.,-0.00076724,0.26043617,0.,-
 0.02567290,0.,0.,0.00015523,0.,0.,0.00385620,0.,0.,0.00393408,0.,0.,0.
 00154679,0.,0.,0.00004964,0.,0.,0.00050155,0.,0.,-0.00017111,0.,0.,-0.
 00306429,0.,0.,0.00060103,0.,0.,0.00029121,0.,0.,-0.00000472,0.,0.,0.0
 0004342,0.,0.,-0.00017483,0.,0.,-0.00067556,0.,0.,0.00117275,0.,0.,-0.
 00252051,0.,0.,0.02013202,-0.13330873,0.,-0.15265450,-0.02489627,0.,-0
 .00618170,0.00002307,0.,-0.00526995,0.00330062,0.,-0.00171893,-0.00054
 521,0.,0.00096687,0.00010082,0.,-0.00053805,0.00026603,0.,0.00053069,-
 0.00080683,0.,-0.00001313,0.00035387,0.,0.00089836,0.00981505,0.,0.010
 37981,-0.00044880,0.,-0.00011712,-0.00002643,0.,-0.00000873,-0.0000110
 4,0.,0.00001283,-0.00000739,0.,-0.00001310,0.00024470,0.,0.00011040,-0
 .00139256,0.,-0.00001536,0.00075580,0.,0.00076438,0.14658330,0.,0.1528
 6721\\-0.00022038,0.,0.00003337,-0.00005683,0.,0.00004186,-0.00009724,
 0.,0.00020057,-0.00001762,0.,-0.00060851,-0.00001554,0.,-0.00000185,-0
 .00010100,0.,0.00005367,-0.00006595,0.,0.00004857,-0.00008121,0.,0.000
 08053,-0.00000284,0.,0.00001538,0.00057589,0.,0.00019733,-0.00010388,0
 .,-0.00011915,-0.00000154,0.,-0.00014244,0.00013039,0.,-0.00009603,0.0
 0013558,0.,0.00004372,0.00008297,0.,0.00013455,0.00008061,0.,0.0001453
 7,-0.00012650,0.,0.00009317,-0.00011491,0.,-0.00012010\\\@


 Age does not diminish the extreme disappointment of
 having a scoop of ice cream fall from the cone.
 -- Jim Fiebig
 Job cpu time:       0 days  1 hours 10 minutes 42.5 seconds.
 Elapsed time:       0 days  1 hours 10 minutes 43.0 seconds.
 File lengths (MBytes):  RWF=    122 Int=      0 D2E=      0 Chk=     10 Scr=      1
 Normal termination of Gaussian 16 at Wed Jun 16 16:35:06 2021.
